ITEM: TIMESTEP
0
ITEM: NUMBER OF ATOMS
        4517
ITEM: BOX BOUNDS pp pp pp
  0.0000000E+00   5000.00000000000     
  0.0000000E+00   600.000000000000     
  0.0000000E+00   600.000000000000     
ITEM: ATOMS x y z nV nH f3 f4 orient
      1528.897924      191.396340      598.093228     1     0     0     0     1
       274.059407      593.816830      194.205453     8     1     0     0     3
       474.288108      473.321559      530.467596    17     0     0     0     5
       250.292299      237.097885      145.411440    14     4     0     0     6
       716.863298      506.992560      540.095562    29     0     0     0     8
       483.091385       61.088867      464.980275    14     0     0     0     3
      1257.259985      199.229558      370.719388    32     0     0     0     1
       200.870719      292.189895       33.552165    10     3     0     0     1
       828.323320      420.407856      391.412139    22     0     0     0     7
       308.055576      245.023457       60.313239     7     0     0     0     3
       234.513307      318.767354      304.206098    12     0     0     0     8
       262.893297      590.549350      490.876430    15     2     0     0     5
        94.613298      289.784008      497.289399     6    15     0     0     5
       302.540788      325.555408        9.678418    20     0     0     0     2
      2368.537950      231.400068      220.283669     1     0     0     0     8
       131.575729      251.559782      317.359680    15    16     0     0     4
       128.160799      519.557772      253.289791    14    17     0     0     7
       373.927989      200.193810      320.418232     8     0     0     0     7
       376.885789      131.997474      553.501252    13     0     0     0     2
      1256.856118      178.394380      331.851756    48     0     0     0     2
        84.365870      560.084973      319.823223    13    14     0     0     5
        85.984985      190.883295      412.654298     7    18     0     0     7
       239.097963       94.958208      127.962314     6     1     0     0     2
       136.547398      558.928074      345.445772     9     8     0     0     5
       501.035814      484.039016      305.033828    11     0     0     0     4
       115.514963      367.524547      365.654796     5    11     0     0     4
       470.223141      599.956211      572.643955    11     0     0     0     3
      1528.715098      562.594066      420.072088     1     0     0     0     2
       580.200822      113.927266      417.243167    11     0     0     0     1
       457.745579      236.371691      581.292633    14     0     0     0     7
        90.055803      414.408582      103.880222    13     6     0     0     3
       627.436278      232.817458      566.287774    13     0     0     0     1
       508.570510      486.467118      574.859058     7     0     0     0     8
       212.445802      267.788386      416.375841     6     3     0     0     7
       455.908865      170.266897      427.924569    11     0     0     0     1
       172.664928      583.344172       56.137886    20     4     0     0     7
       151.715806      203.200971      328.305605    11     9     0     0     5
       963.466874      191.979576      373.147104    24     0     0     0     5
       316.187613      127.391403      539.107264    10     4     0     0     6
      2501.259205      378.118532      239.967715     1     0     0     0     6
       278.158693      204.260396      520.954275    16     2     0     0     5
       182.470137      160.465502        3.884236     7     5     0     0     4
       531.043291      209.335251      218.753162    15     0     0     0     5
       136.030794      472.989603      297.446467     7    16     0     0     1
       923.190730      204.644371      297.995274    30     0     0     0     2
       445.525804      244.400826      435.308559    10     0     0     0     6
       606.837709      509.235751       65.800646    17     0     0     0     6
      2167.464961      284.501653      251.713979     1     0     0     0     1
       342.319472      170.824476      441.468520    11     0     0     0     5
       583.873308      212.923858      236.944731    18     0     0     0     3
       296.144304      365.477618       23.748080    11     0     0     0     7
       159.521764      452.894076       32.081925    14     9     0     0     8
       161.066144       80.342736      125.712614     8     7     0     0     7
       573.945817      132.769896      580.417173    16     0     0     0     4
       655.671677      252.940760      166.453960    12     0     0     0     3
        59.080092       22.190491      555.811716     7    20     0     0     4
      2228.485605      390.127554      432.916744     1     0     0     0     5
       770.005815       59.902422      118.971197    26     0     0     0     3
      2120.667704      348.554214      171.453588     1     0     0     0     7
       215.723299      279.727036      194.489041    11     1     0     0     5
        63.284374      345.190616       55.549958     6    17     0     0     3
        59.005800       15.042444      593.885236    21    21     0     0     8
       209.046598      578.720696       21.826076    11     6     0     0     7
       525.691180      419.877889      273.303412    13     0     0     0     1
       224.289570      394.599435      227.350882     8     1     0     0     3
       341.669722      120.222065      414.502534    14     1     0     0     8
       212.004651      110.005960      498.458770    10     5     0     0     2
      2085.827483       16.944392      385.708310     1     0     0     0     3
       372.243303       64.462984      404.527678    10     0     0     0     5
       102.677301      465.925649       79.252347     8    10     0     0     8
       158.335802      184.784340      382.792780     6     5     0     0     3
      2198.216406       96.278013      418.460896     1     0     0     0     8
       508.258005       36.408273      536.575046     7     0     0     0     7
      1285.362211      556.023795      551.073305    53     0     0     0     7
       199.410799      106.066061      553.234114    18     2     0     0     5
      3011.041103      190.647785      283.640504     1     0     0     0     7
       316.338672      567.535475       69.649493     8     0     0     0     8
       358.328225      546.854613      467.473212    10     0     0     0     4
      1020.093228       72.655108      239.917228    33     0     0     0     3
      2299.649682      219.900517      245.168273     1     0     0     0     5
       228.046075      299.167850      344.493060    12     5     0     0     3
       163.359804      466.930659      145.793560    16    13     0     0     5
       513.090806       19.210055      542.081878    13     0     0     0     3
        51.482558      451.954952      156.256452    16    11     0     0     8
        56.522508      408.482310      560.540421    12    11     0     0     4
        64.740800      488.225278      126.045905    12    11     0     0     8
      2023.460996      540.853376       60.153128     1     0     0     0     8
      2378.981897      216.366408      417.008802     1     0     0     0     4
        44.881252      472.391042      503.019543    13    12     0     0     6
       767.738629      314.852997      137.713158    15     0     0     0     1
       413.361638      295.839606      238.358426    11     0     0     0     7
       183.648545      519.062516      439.700640    18    10     0     0     6
       194.579311      118.553597      296.474661    10     6     0     0     4
       488.933305       65.252280      339.936223     9     0     0     0     8
      2394.692378      479.864509      503.189640     1     0     0     0     6
        41.971586       34.363515      185.167008     8    10     0     0     7
      2283.739755      237.545465       82.513951     1     0     0     0     5
       380.370805       50.734912      174.194069    17     0     0     0     5
       298.432970      534.249744      290.385649    13     0     0     0     8
       623.693315      170.614640      416.929554    21     0     0     0     3
        85.920801      239.157763      154.813701     9    11     0     0     3
       194.191478      163.625982      450.228698    10     8     0     0     8
      1998.210441      315.562096      462.825251     1     0     0     0     5
        18.920800      365.331061      598.567986     8     8     0     0     3
       697.412881      109.219266        6.539289    27     0     0     0     6
       263.046905      111.616309      304.182139    15     1     0     0     8
       437.843309      469.211679      502.647622    15     0     0     0     8
       584.545074      245.001544      303.703801    18     0     0     0     3
       309.884530      225.369458      104.106297    12     0     0     0     6
       992.183477       64.567238       17.766194    26     0     0     0     5
       631.570817      498.681567      232.932067    14     0     0     0     4
       209.041155       50.038310      177.146189     8     3     0     0     4
       544.461809      469.003477      455.166254    17     0     0     0     4
      2347.149610      344.809647      182.497757     1     0     0     0     8
        58.824800      496.416298      413.508489    12    14     0     0     5
       622.360796       49.314624      403.982238    11     0     0     0     2
       762.315482      262.265005       20.089796    17     0     0     0     4
      2634.923215      214.135923      467.184203     1     0     0     0     6
      2086.125787      184.500748      493.938116     1     0     0     0     1
       106.555952      513.447500       24.403239    13    11     0     0     5
       522.143327      518.286100      414.080741    12     0     0     0     5
        97.809177      113.273279      332.070486    10    15     0     0     6
       712.070817      192.720907      238.785927    10     0     0     0     1
       128.644201      142.095934      238.615843    15    19     0     0     6
      1324.228824      207.552503      349.199844     1     0     0     0     7
       259.638604      491.847709        1.099917    15     1     0     0     8
      2448.788432      563.017580      105.964054     1     0     0     0     4
      1725.416603      353.325318      101.044985     1     0     0     0     3
      1652.958451      293.707052      391.900683     1     0     0     0     1
       175.803300      277.571075      263.996111     9     4     0     0     1
       128.051914      101.008423      257.585218    12    17     0     0     1
       772.058305      587.942192      492.956283    20     0     0     0     4
        75.488298      214.372913      555.551317    14     9     0     0     8
        62.649652       36.598676      142.318516     8    15     0     0     4
        57.008298      334.960208       82.594396     9    18     0     0     3
       277.122259      522.772606      169.152329     6     0     0     0     6
      1435.619028      468.516459       35.185519    65     0     0     0     4
       121.635990      219.608426      534.057722    11    12     0     0     2
      2766.634091      132.207587      412.184969     1     0     0     0     8
       541.348172       30.157208      446.901894    10     0     0     0     3
      1931.569941      280.124545      491.835744     1     0     0     0     4
       380.183891      337.894376      474.857439    14     0     0     0     5
        65.618299      446.086133      489.516980    12    12     0     0     2
       244.352656      337.840176      515.438512    13     0     0     0     1
      1983.464164      318.569996      436.148203     1     0     0     0     5
       223.963771      564.251663      214.632757    14     5     0     0     4
       219.145788      199.125693       29.624021    14     5     0     0     7
       568.058305      448.495736      599.691371    15     0     0     0     6
        69.078802      270.539111       13.591901    13    16     0     0     4
       323.281262      237.398901      494.170471    11     0     0     0     5
       183.767376      269.516306      360.948534     8     9     0     0     6
       130.470631      109.284248       56.742043    10    19     0     0     4
       108.682117      250.716504      514.278759     9    17     0     0     7
       625.260703      383.467130       10.055220    16     0     0     0     8
      1448.233966      524.777503      216.832253     1     0     0     0     1
       174.900804      340.593570      174.143490    13     8     0     0     8
       902.755699      177.139776      555.390510    24     0     0     0     4
       790.148825      469.641910      143.664964    23     0     0     0     6
       104.870153      303.987053      251.840732    13    19     0     0     4
       103.497797      585.133809      521.695544     9    14     0     0     7
       473.288286      337.390848      510.428508    21     0     0     0     1
       135.788301      192.153370       70.486074    10    21     0     0     8
       589.748308       54.403483       93.542786    22     0     0     0     4
      1965.141029      307.793491      584.336888     1     0     0     0     4
        36.846325      277.078542      405.836330     9    14     0     0     5
       223.780794      363.879921       60.509569    14     3     0     0     5
        59.112273      245.165665      310.361295     6    12     0     0     6
       353.945787      431.838183      251.367459    16     0     0     0     8
       752.600786       10.839189       50.870507    27     0     0     0     4
        95.793191      215.444752       47.543222     9    19     0     0     5
       171.138795       46.111493      340.496041     8     5     0     0     2
       277.767808      264.154225      183.747789     9     0     0     0     7
       840.715351      391.382639      458.535294    16     0     0     0     5
        88.521996       61.990945       38.719470     6    18     0     0     3
       134.595796      402.752026      406.762496    20    17     0     0     4
      1731.780272       86.699753      270.709414     1     0     0     0     6
      2150.891664      130.174106      129.719781     1     0     0     0     2
       243.150804      331.129346      287.443164     8     5     0     0     8
       151.586305      510.153504      155.949391    16    16     0     0     5
       277.273302      268.404428      126.253575     8     1     0     0     5
       292.814287      536.844256      557.935657    12     0     0     0     1
        30.515300      185.498917       41.583493    17    11     0     0     8
       854.707228      332.590181      286.957217    16     0     0     0     5
       146.145799      305.483612      281.561750    11    16     0     0     7
      1574.482844      363.741058      264.700378     1     0     0     0     8
      2085.716970      563.686605       97.609109     1     0     0     0     2
       347.800798      275.907390      437.478700    14     0     0     0     3
      1629.457439      112.048699      555.494386     1     0     0     0     3
       899.605846      446.107432      228.678004    18     0     0     0     1
       376.693315        3.531437      455.495293    14     0     0     0     4
        60.817370      175.455269      301.028119     6    16     0     0     4
        41.756300      176.057392       47.442923     6    11     0     0     4
       114.348802      516.736389      104.715247    16    17     0     0     2
       177.672807      215.742588      215.339172    17    14     0     0     8
       476.630049       88.467664      356.171226     7     0     0     0     4
        72.447246      388.640148      509.335832     7    16     0     0     3
      2400.346575      261.703203       49.942512     1     0     0     0     2
      2183.346152      302.253743      208.523471     1     0     0     0     1
      2093.120809      359.396134      248.687936     1     0     0     0     4
       495.334348       92.147447      210.939494     7     0     0     0     6
      2986.471871      159.174957      448.441540     1     0     0     0     5
       430.790733      216.422561      126.188148    14     0     0     0     1
      1262.925437      277.101630      407.878266     1     0     0     0     5
       301.338304       31.240325      298.780670    10     0     0     0     8
      1923.607079       47.885610       64.429597     1     0     0     0     4
       206.302102      335.479227      105.412098    15     6     0     0     5
       471.355791      250.364076      574.684632    16     0     0     0     2
       212.368303      482.917301      405.691598    10     4     0     0     4
       395.076944      117.016529      293.789788     8     0     0     0     1
       546.988298      372.397515      570.071924    20     0     0     0     4
       422.430803      159.125270      204.607374    18     0     0     0     1
      1658.655307      180.126958       75.813875     1     0     0     0     4
       147.820731      224.752298      491.569858    13    18     0     0     1
       428.438310      224.424016      375.683743    17     0     0     0     3
       350.225628      299.832073      130.638894     6     0     0     0     2
       480.948864       68.449008      560.231035    13     0     0     0     6
       280.936055      468.807608      250.173201    11     0     0     0     1
       139.693300      355.379743      510.615683    12    12     0     0     8
       169.728303      429.826592      447.949957    14    17     0     0     3
      1896.899156       36.945857      400.598768     1     0     0     0     1
        79.375803      185.435163       60.645170     9    14     0     0     5
       233.745579      302.797837      106.139085    14     4     0     0     6
       314.925656      179.423108      104.427855    11     1     0     0     3
        64.524297      269.396855      423.943422    12    15     0     0     5
        33.212301      487.127009      337.743288     7     8     0     0     2
      1917.795429      165.920751       71.362895     1     0     0     0     8
      2113.123635      502.387614      348.810230     1     0     0     0     5
      1979.432198      114.612697       15.912946     1     0     0     0     2
      2360.858303      469.063038      136.017906     1     0     0     0     3
       223.359804       68.802211       34.402002    13     5     0     0     5
       509.572922      151.052550      284.675656    13     0     0     0     8
       439.025718      258.498242       63.906555    11     0     0     0     1
       365.020369       53.608429      485.592080    15     0     0     0     5
      2003.546436      192.447261      298.178277     1     0     0     0     7
      2144.894910      566.213297      591.199168     1     0     0     0     6
      2300.085798      159.969809      451.447588     1     0     0     0     7
       149.937782      414.519913      112.016410    10     9     0     0     4
       323.067516      452.270659      595.496930    11     0     0     0     4
       732.235328      364.052714       99.229893    10     0     0     0     2
      1771.928024      268.175932      212.384263     1     0     0     0     2
      2630.077901      518.915595      270.654622     1     0     0     0     5
       448.082010      284.318826      421.557295    14     0     0     0     7
      1057.100786      473.700384      528.530909    30     0     0     0     4
       256.742296       59.716426      399.287294    11     0     0     0     1
        69.823041      309.824671      527.774592     8    14     0     0     3
        28.343299      250.618086      165.460371     7     3     0     0     8
       343.353288      581.224217      177.380955    16     0     0     0     5
       506.334581      267.870374      178.070474    17     0     0     0     4
       396.553300        0.701446      527.681275    11     0     0     0     6
       462.795793       23.582207      587.716414    10     0     0     0     6
      1724.809836      517.177378      412.100590     1     0     0     0     4
        19.762208      535.603495      553.345728     6     2     0     0     3
      2188.466322      310.984486      102.903935     1     0     0     0     5
       480.580797      594.160379      420.077991    12     0     0     0     2
       171.835802      263.306124      546.468491     6     5     0     0     4
       638.565813      462.581579      562.170779    16     0     0     0     4
       282.863298      316.362634      354.521452    20     2     0     0     5
      1301.361130      283.401127      461.117561    65     0     0     0     8
       817.610796      328.978520      231.828695    17     0     0     0     5
       223.765794      151.440477      544.323283     9     1     0     0     6
       442.425798      360.570870       22.326464    13     0     0     0     4
       335.328294      365.815360       92.266095    11     1     0     0     5
      1016.035825      537.591589      455.329944    26     0     0     0     6
       305.975786      368.613296      590.199703    14     0     0     0     3
      1884.977898      265.115125      212.779541     1     0     0     0     2
        41.702299       16.893936      126.913884     8     9     0     0     8
        32.123300      490.939839      525.267994     9     7     0     0     3
       388.466000      379.680822      285.899142    11     0     0     0     4
       216.359044       36.666980      532.284750     7     3     0     0     2
       460.236028      224.207469      532.266913    21     0     0     0     7
       694.192861      188.585712       36.294404    15     0     0     0     2
       843.599544      222.508101      234.105357    24     0     0     0     1
        67.893301      176.357802      170.939447    16    17     0     0     1
      2039.203343      561.981417      524.092446     1     0     0     0     2
      1252.102723      452.814674      213.496621     1     0     0     0     6
       235.897848      444.649605      510.147666    12     1     0     0     8
       696.890936      520.196540      205.512032    15     0     0     0     2
      2491.719670      190.540179      533.238479     1     0     0     0     4
        28.623300       24.133999      281.649088    11     3     0     0     8
        41.288344      434.151957      485.990929     9     9     0     0     6
      2283.427368      302.842346      457.070889     1     0     0     0     4
       191.868806      257.096443      400.453281    10     6     0     0     6
       157.302797      107.541593      597.128275    15    10     0     0     3
      3105.151031       46.797374      491.234765     1     0     0     0     3
       979.653398      207.058466      102.350873    26     0     0     0     8
       678.068315      341.471278      457.806338    15     0     0     0     1
      2561.642860      313.625833      265.988504     1     0     0     0     4
        90.477800       61.714238      128.132079    13    16     0     0     2
       314.137697      267.500459      121.862154     8     0     0     0     8
        66.407226      147.920138      549.948948    12    17     0     0     1
       360.431013      262.105193      180.020505    13     0     0     0     6
       282.835802      181.683909      166.922856    17     1     0     0     1
       284.847700      354.235505      460.853860    11     0     0     0     5
      1271.589603      247.197427      548.379455    47     0     0     0     2
       154.350801      319.876979       37.082890     8     8     0     0     3
       337.566961      465.739012       92.229945    13     1     0     0     8
       169.078294      262.019812      594.910775     9     5     0     0     8
       473.930370      189.462244      296.487130    17     0     0     0     1
       663.640825        7.011662      344.852869    17     0     0     0     7
       193.546115      486.473342      492.497888     6     4     0     0     6
       401.588218      198.983845        6.427172    17     0     0     0     8
       647.365800      155.062939       71.113812    11     0     0     0     5
       936.901042      110.058585      513.264453    30     0     0     0     6
       187.067293      581.144956      100.687917    10     6     0     0     6
       128.923303      185.577444      592.649616     9    20     0     0     2
      1870.454298      475.030014      405.796544     1     0     0     0     2
       237.156966      551.142221      471.278714    18     3     0     0     8
      1536.796237      119.778308      509.596296     1     0     0     0     1
      1511.848567      458.012771      177.212218     1     0     0     0     7
       488.967790       37.607768      549.839989     9     0     0     0     7
       169.400842      247.459265      360.761750    10     9     0     0     8
       224.823148      231.918010      418.403297     9     0     0     0     4
        77.958448      258.816645       30.170299    13    22     0     0     1
       962.190813      423.014873       97.460902    34     0     0     0     8
      1047.666868      357.111778      221.543867    22     0     0     0     8
       277.776811       58.336061       86.042871    16     0     0     0     7
      1509.854930      528.854952      498.555564     1     0     0     0     7
       874.714563      458.073256      578.656547    27     0     0     0     5
      2274.311163      445.173766      528.565187     1     0     0     0     6
      2050.146010      554.877792       42.526047     1     0     0     0     2
      1536.703995      364.422239      378.568643     1     0     0     0     7
        69.651121      329.486445      363.625500     8    15     0     0     6
        72.134974      133.390980       33.305085     6    18     0     0     2
      1495.081497      367.038398      592.986084     1     0     0     0     5
      2505.742116      210.896074      521.497962     1     0     0     0     8
       168.029298      320.196145      592.914886    13     8     0     0     3
       106.236242      445.377021      525.980980     9    21     0     0     1
        64.549043      516.650072      567.618198    11    20     0     0     4
       215.086115      101.385019      487.819857    13     5     0     0     6
      1842.837309      592.046669      314.587704     1     0     0     0     6
      2319.738507      255.812017      326.547786     1     0     0     0     2
       151.254924      357.752117      409.272187    12    18     0     0     4
       835.484606      503.016434       90.143836    25     0     0     0     6
        35.738225      511.287006      325.447524     8    11     0     0     4
       329.512713      253.435176      170.980774     9     1     0     0     7
       603.950368      343.425054      578.306461    24     0     0     0     7
       187.986281      323.288488      422.763913    13     6     0     0     7
       123.924819      250.147096       83.437589    11    19     0     0     6
      3003.284611      391.921656      253.724768     1     0     0     0     4
       118.147005      597.042514      339.769124     8    10     0     0     7
       459.520241       73.561208      533.646998    18     0     0     0     1
       137.295793      327.678731       16.991042     9    10     0     0     2
       888.163917      470.321240      436.072324     9     0     0     0     5
       472.952780      305.044478      526.903133    12     0     0     0     2
       664.463274      393.907814      443.799160    12     0     0     0     8
       107.718301      465.660431      256.251658     8    12     0     0     4
      1508.117515      360.216981       60.884950     1     0     0     0     7
       439.840806      560.904311      192.408684    18     0     0     0     5
       694.780778      162.544283      250.965311    14     0     0     0     5
      2636.932687       43.345984      317.858912     1     0     0     0     6
      1811.496361       27.734517      486.103406     1     0     0     0     8
       757.097019      279.529965      431.935170    14     0     0     0     6
      3190.552812       26.122799      166.659250     1     0     0     0     4
       179.438295      525.201628      468.701217    15     4     0     0     6
       381.080797      194.690335      370.389481    17     0     0     0     4
       398.573218      586.137199      113.672482    12     0     0     0     1
       202.582736      141.221795      421.429401     6     4     0     0     1
      1071.966058      311.753170      272.903499    34     0     0     0     3
       265.128313      268.105361      475.313892    10     2     0     0     7
      1770.408430      573.283216      352.790203     1     0     0     0     7
       399.310252       83.407899      194.152806    21     0     0     0     7
       545.322951      389.101320      391.262288     6     0     0     0     4
       363.085802      154.172207      113.271243    19     0     0     0     7
       118.533304      559.565830      310.874277    21    12     0     0     1
        72.591798      293.743792      295.529162     8    16     0     0     7
       116.222150      227.557531       13.970684    15    11     0     0     5
        91.434293       17.601086      469.003716    14    20     0     0     4
       139.301301      267.583643      383.489346    16    18     0     0     3
       196.240432      301.483131       59.827566    13     1     0     0     8
        66.521394      167.865961      563.463258     8     7     0     0     1
       558.793097      294.389452      288.998922    10     0     0     0     6
        49.355798      328.396214      145.962241    11    12     0     0     4