ITEM: TIMESTEP
0
ITEM: NUMBER OF ATOMS
        4516
ITEM: BOX BOUNDS pp pp pp
  0.0000000E+00   5000.00000000000     
  0.0000000E+00   600.000000000000     
  0.0000000E+00   600.000000000000     
ITEM: ATOMS x y z nV nH f3 f4 orient
      1527.315350      186.648615      596.510653     1     0     0     0     3
       274.059407      593.816830      194.205453     8     1     0     0     3
       474.288108      473.321559      530.467596    17     0     0     0     5
       195.933516      351.934663      225.227752    21    13     0     0     6
       716.863298      506.992560      540.095562    29     0     0     0     8
       483.091385       61.088867      464.980275    14     0     0     0     3
      1257.259985      199.229558      370.719388    32     0     0     0     1
        65.790874      501.436549      262.244447    10    12     0     0     3
       828.323320      420.407856      391.412139    22     0     0     0     7
       308.055576      245.023457       60.313239     7     0     0     0     3
       136.488298      453.554372      505.340619    10    11     0     0     4
        57.960892      528.520081      537.318011     9    14     0     0     8
       215.081275       90.112212      162.908282    17     3     0     0     5
       302.540788      325.555408        9.678418    20     0     0     0     2
      2368.537950      228.234918      220.283669     1     0     0     0     7
       193.081953      407.460005      332.455757     9     6     0     0     6
       137.022947      477.368001      486.745530     6     9     0     0     1
       373.927989      200.193810      320.418232     8     0     0     0     7
       376.885789      131.997474      553.501252    13     0     0     0     2
      1256.856118      178.394380      331.851756    48     0     0     0     2
       275.640496      256.596664       67.554809    10     2     0     0     4
       243.748292      462.290410       54.936981    11     4     0     0     5
        89.723299      400.340794      133.003056    12    16     0     0     7
       148.428825      239.253033      254.616187    12     9     0     0     4
       501.035814      484.039016      305.033828    11     0     0     0     4
        90.744633      350.486897      281.919792    11    11     0     0     8
       470.223141      599.956211      572.643955    11     0     0     0     3
      1528.715098      562.594066      420.072088     1     0     0     0     2
       580.200822      113.927266      417.243167    11     0     0     0     1
       457.745579      236.371691      581.292633    14     0     0     0     7
       178.322657      328.554778       45.277504    17    13     0     0     5
       627.436278      232.817458      566.287774    13     0     0     0     1
       508.570510      486.467118      574.859058     7     0     0     0     8
        94.835802      274.494865      586.133163    11    13     0     0     3
       455.908865      170.266897      427.924569    11     0     0     0     1
       154.982301       81.055607      275.741871    13     7     0     0     3
       128.051914      101.008423      257.585218    12    13     0     0     6
       963.466874      191.979576      373.147104    24     0     0     0     5
       181.598596      498.122369       45.497513     8     8     0     0     6
      2501.259205      378.118532      239.967715     1     0     0     0     5
       115.635814      429.217906      279.930312    12    11     0     0     3
       203.750158      521.511778      142.094544    16     6     0     0     1
       531.043291      209.335251      218.753162    15     0     0     0     5
        51.238302      151.764129      420.181773     8     9     0     0     4
       923.190730      204.644371      297.995274    30     0     0     0     2
       445.525804      244.400826      435.308559    10     0     0     0     6
       606.837709      509.235751       65.800646    17     0     0     0     6
      2169.047536      286.084228      243.801105     1     0     0     0     2
       342.319472      170.824476      441.468520    11     0     0     0     5
       583.873308      212.923858      236.944731    18     0     0     0     3
       296.144304      365.477618       23.748080    11     0     0     0     7
       169.056795      259.780817      288.572654    10     9     0     0     8
        99.773372      337.394501      500.342422     9     9     0     0     7
       573.945817      132.769896      580.417173    16     0     0     0     4
       655.671677      252.940760      166.453960    12     0     0     0     3
        78.495798       63.589725      369.106173    16    13     0     0     7
      2226.903030      388.544979      434.499319     1     0     0     0     7
       770.005815       59.902422      118.971197    26     0     0     0     3
      2117.502555      345.389064      168.288439     1     0     0     0     2
        99.255792      382.432149      232.805730     7     9     0     0     1
        60.599001      256.107066      116.065574    13    11     0     0     1
        67.840799      425.415405       56.738657    14    13     0     0     7
       209.046598      578.720696       21.826076    11     6     0     0     7
       525.691180      419.877889      273.303412    13     0     0     0     1
       169.667430       63.231095      481.145829    17    14     0     0     2
       341.669722      120.222065      414.502534    14     1     0     0     8
        54.005375      458.417522       23.843770     8    10     0     0     5
      2084.244908       18.526967      384.125735     1     0     0     0     4
       372.243303       64.462984      404.527678    10     0     0     0     5
       151.053300      110.004131      105.598239     6     6     0     0     3
        30.906724      227.723813      514.769377     9    11     0     0     2
      2199.798981       94.695439      420.043471     1     0     0     0     3
       508.258005       36.408273      536.575046     7     0     0     0     7
      1285.362211      556.023795      551.073305    53     0     0     0     7
       183.648545      519.062516      439.700640    18     9     0     0     2
      3011.041103      187.482635      286.805653     1     0     0     0     3
       316.338672      567.535475       69.649493     8     0     0     0     8
       358.328225      546.854613      467.473212    10     0     0     0     4
      1020.093228       72.655108      239.917228    33     0     0     0     3
      2301.232257      221.483092      243.585699     1     0     0     0     8
       141.828380      462.835973      252.823699     9    11     0     0     6
       100.200799      414.222058       44.716442     7    10     0     0     5
       513.090806       19.210055      542.081878    13     0     0     0     3
        61.651250      480.902319       96.830873     9    12     0     0     4
       201.201274      259.224886       83.390755    21     8     0     0     5
       257.508302      460.725194      264.776496    10     1     0     0     6
      2021.878422      542.435951       64.900852     1     0     0     0     1
      2375.816747      216.366408      413.843652     1     0     0     0     2
        18.920800      365.331061      598.567986     8     7     0     0     6
       767.738629      314.852997      137.713158    15     0     0     0     1
       413.361638      295.839606      238.358426    11     0     0     0     7
       219.678300      134.266890      294.164989    13     5     0     0     5
        63.993526      428.002668      560.255876    16    19     0     0     6
       488.933305       65.252280      339.936223     9     0     0     0     8
      2393.109803      481.447084      504.772215     1     0     0     0     6
        43.612485      206.295195      356.960437    11     9     0     0     5
      2285.322330      239.128040       80.931376     1     0     0     0     8
       380.370805       50.734912      174.194069    17     0     0     0     5
       298.432970      534.249744      290.385649    13     0     0     0     8
       623.693315      170.614640      416.929554    21     0     0     0     3
        54.635227      496.047353      464.475822     6     6     0     0     7
       161.131480      362.147625      172.390318    18    16     0     0     6
      1996.627866      317.144671      461.242676     1     0     0     0     4
       121.169471      190.053582      384.672534     9    13     0     0     5
       697.412881      109.219266        6.539289    27     0     0     0     6
       138.490503       39.957824      462.775272    16    17     0     0     8
       437.843309      469.211679      502.647622    15     0     0     0     8
       584.545074      245.001544      303.703801    18     0     0     0     3
       309.884530      225.369458      104.106297    12     0     0     0     6
       992.183477       64.567238       17.766194    26     0     0     0     5
       631.570817      498.681567      232.932067    14     0     0     0     4
        42.066950      203.407965      473.469797    12    12     0     0     1
       544.461809      469.003477      455.166254    17     0     0     0     4
      2348.732184      346.392222      180.915183     1     0     0     0     8
       326.132908        8.985371       33.382937    15     1     0     0     1
       622.360796       49.314624      403.982238    11     0     0     0     2
       762.315482      262.265005       20.089796    17     0     0     0     4
      2636.505790      212.553348      465.601628     1     0     0     0     5
      2084.543212      182.918174      492.355541     1     0     0     0     8
       178.576017        1.482474      369.985741     9     9     0     0     3
       522.143327      518.286100      414.080741    12     0     0     0     5
        67.040800      441.770715      138.105264    11    10     0     0     6
       712.070817      192.720907      238.785927    10     0     0     0     1
        46.403299      264.091233      168.998897     7     7     0     0     5
      1327.393974      210.717653      342.869545     1     0     0     0     2
        72.383302      269.245828      318.610782    12    17     0     0     7
      2451.953582      559.852430      105.964054     1     0     0     0     3
      1723.834029      348.577594       99.462410     1     0     0     0     2
      1652.958451      290.541902      395.065833     1     0     0     0     3
       183.863298      539.239618      545.326842     9     6     0     0     8
       158.668248      223.615715      396.333333     9     8     0     0     8
       772.058305      587.942192      492.956283    20     0     0     0     4
        79.375803      185.435163       60.645170     9    11     0     0     1
        71.726297       19.363597       51.361224     8     6     0     0     4
       186.179928      410.234957      572.655764    15     5     0     0     6
       243.873151      449.319815      189.009837    15     0     0     0     4
      1435.619028      468.516459       35.185519    65     0     0     0     4
        41.122325      447.284185        0.790575     8    11     0     0     7
      2771.381815      130.625012      416.932693     1     0     0     0     3
       541.348172       30.157208      446.901894    10     0     0     0     3
      1929.987366      281.707120      490.253169     1     0     0     0     4
       380.183891      337.894376      474.857439    14     0     0     0     5
       171.894807      316.670630      547.914596    13    10     0     0     8
        52.177543      222.164433      155.527080    10    10     0     0     3
      1983.464164      318.569996      436.148203     1     0     0     0     5
       125.995668      441.485913      594.275901    13    14     0     0     6
       300.928300       26.901023      421.647936    10     3     0     0     3
       568.058305      448.495736      599.691371    15     0     0     0     6
       168.995433      140.375405      546.307216    18    12     0     0     7
       323.281262      237.398901      494.170471    11     0     0     0     5
       290.192495      385.520672      318.293074    19     1     0     0     5
        62.649652       36.598676      142.318516     8    11     0     0     2
        46.825799      164.625865       37.124196    11    13     0     0     4
       625.260703      383.467130       10.055220    16     0     0     0     8
      1448.233966      521.612353      210.501954     1     0     0     0     2
        17.558300      229.694038      566.953750     6     4     0     0     2
       902.755699      177.139776      555.390510    24     0     0     0     4
       790.148825      469.641910      143.664964    23     0     0     0     6
       146.308305       64.739102      133.384545     6     7     0     0     7
       178.928660      363.654942      428.138541     9     6     0     0     8
       473.288286      337.390848      510.428508    21     0     0     0     1
        50.415800      394.546685      365.407984     6     6     0     0     6
       589.748308       54.403483       93.542786    22     0     0     0     4
      1961.975879      304.628341      581.171738     1     0     0     0     2
       204.612199      591.564569      158.572175    12     4     0     0     5
       165.788301      311.936281      495.384419    18    10     0     0     6
       137.295793      327.678731       16.991042     9    13     0     0     4
       353.945787      431.838183      251.367459    16     0     0     0     8
       752.600786       10.839189       50.870507    27     0     0     0     4
        69.420801      344.083044      128.262129    18    19     0     0     1
       305.421800      598.515897      335.723964    14     1     0     0     4
       222.860378      207.280053      193.849242     7     2     0     0     1
       840.715351      391.382639      458.535294    16     0     0     0     5
       176.130800      270.713783        5.761525     8     6     0     0     2
       152.925798      109.130730      405.809791    11    13     0     0     5
      1730.197697       88.282328      265.961690     1     0     0     0     3
      2157.221964      133.339255      132.884930     1     0     0     0     5
        54.003301      223.337253      382.478664    15    13     0     0     1
        41.575799        5.815368       81.513943    13    14     0     0     6
       277.273302      268.404428      126.253575     8     1     0     0     5
       292.814287      536.844256      557.935657    12     0     0     0     1
       155.105806      586.834751      533.262571    11    12     0     0     3
       854.707228      332.590181      286.957217    16     0     0     0     5
        36.880800      293.569453      570.477250    12     9     0     0     5
      1569.735119      362.158483      259.952654     1     0     0     0     8
      2087.299545      562.104030       96.026534     1     0     0     0     7
       347.800798      275.907390      437.478700    14     0     0     0     3
      1627.874864      110.466124      560.242110     1     0     0     0     1
       899.605846      446.107432      228.678004    18     0     0     0     1
       376.693315        3.531437      455.495293    14     0     0     0     4
       288.213304      492.351962      443.804903    15     0     0     0     7
        66.407226      147.920138      549.948948    12    14     0     0     4
       126.230302      441.132747      361.995110    16    10     0     0     6
       212.683305      227.819999      268.681489    17     3     0     0     4
       476.630049       88.467664      356.171226     7     0     0     0     4
        82.903228      457.820676      105.057368     9    10     0     0     1
      2400.346575      261.703203       49.942512     1     0     0     0     2
      2181.763577      310.166617      200.610597     1     0     0     0     4
      2093.120809      356.230985      251.853085     1     0     0     0     3
       495.334348       92.147447      210.939494     7     0     0     0     6
      2980.141571      159.174957      445.276390     1     0     0     0     2
       430.790733      216.422561      126.188148    14     0     0     0     1
      1261.342862      275.519055      412.625990     1     0     0     0     5
       139.308496       99.708753      169.426930    10     9     0     0     8
      1925.189654       46.303036       66.012172     1     0     0     0     3
       145.400804        2.128230       67.408832     7     6     0     0     7
       471.355791      250.364076      574.684632    16     0     0     0     2
        24.490800      142.310361      579.896743    10     6     0     0     6
       395.076944      117.016529      293.789788     8     0     0     0     1
       546.988298      372.397515      570.071924    20     0     0     0     4
       422.430803      159.125270      204.607374    18     0     0     0     1
      1658.655307      180.126958       72.648726     1     0     0     0     2
       202.521423      247.760248      454.946387     8     6     0     0     3
       428.438310      224.424016      375.683743    17     0     0     0     3
       350.225628      299.832073      130.638894     6     0     0     0     2
       480.948864       68.449008      560.231035    13     0     0     0     6
       217.032999      492.831896      288.592327    16     6     0     0     1
       150.986299      315.664725        9.218426    11    10     0     0     7
        26.763643       36.916682      273.408592     5     3     0     0     4
      1898.481730       35.363282      399.016194     1     0     0     0     5
       224.178300      593.427175      101.962360    11     5     0     0     6
        88.521996       61.990945       38.719470     6     8     0     0     1
       314.925656      179.423108      104.427855    11     1     0     0     3
       130.285588      578.475332      431.884523    17    15     0     0     5
        81.549877      244.385494      320.408890    10    12     0     0     7
      1917.795429      165.920751       71.362895     1     0     0     0     8
      2114.706210      500.805039      350.392805     1     0     0     0     3
      1981.014773      116.195271       17.495521     1     0     0     0     1
      2360.858303      469.063038      136.017906     1     0     0     0     2
        82.817222      114.722137      113.835039    29    28     0     0     5
       509.572922      151.052550      284.675656    13     0     0     0     8
       439.025718      258.498242       63.906555    11     0     0     0     1
       365.020369       53.608429      485.592080    15     0     0     0     5
      2001.963861      190.864686      296.595703     1     0     0     0     4
      2146.477485      570.961021      586.451444     1     0     0     0     4
      2298.503223      155.222085      446.699863     1     0     0     0     2
        53.635801      381.681015      424.897815     7    11     0     0     2
       323.067516      452.270659      595.496930    11     0     0     0     4
       732.235328      364.052714       99.229893    10     0     0     0     2
      1767.180300      269.758507      210.801688     1     0     0     0     7
      2626.912751      522.080744      273.819772     1     0     0     0     6
       448.082010      284.318826      421.557295    14     0     0     0     7
      1057.100786      473.700384      528.530909    30     0     0     0     4
       256.742296       59.716426      399.287294    11     0     0     0     1
       161.066144       80.342736      125.712614     8     8     0     0     6
       126.167299      374.242578      522.857753     6     6     0     0     8
       343.353288      581.224217      177.380955    16     0     0     0     5
       506.334581      267.870374      178.070474    17     0     0     0     4
       396.553300        0.701446      527.681275    11     0     0     0     6
       462.795793       23.582207      587.716414    10     0     0     0     6
      1729.557560      518.759952      410.518015     1     0     0     0     2
        41.971586       34.363515      185.167008     8     9     0     0     2
      2190.048897      312.567061      104.486509     1     0     0     0     1
       480.580797      594.160379      420.077991    12     0     0     0     2
       181.808305       71.658247      307.033398    12     7     0     0     6
       638.565813      462.581579      562.170779    16     0     0     0     4
       118.526300      127.841951      566.383527    10    11     0     0     3
      1301.361130      283.401127      461.117561    65     0     0     0     8
       817.610796      328.978520      231.828695    17     0     0     0     5
       367.348563      441.542556      147.411885    16     1     0     0     7
       442.425798      360.570870       22.326464    13     0     0     0     4
       335.328294      365.815360       92.266095    11     1     0     0     5
      1016.035825      537.591589      455.329944    26     0     0     0     6
       305.975786      368.613296      590.199703    14     0     0     0     3
      1884.977898      261.949976      206.449241     1     0     0     0     5
       184.015794      199.598915      547.622647    11    13     0     0     4
        57.319708      593.950336      105.289674     6     9     0     0     1
        99.660799      515.146894      161.186177    17    18     0     0     4
       173.424679      259.962629      532.518971     6     9     0     0     8
       460.236028      224.207469      532.266913    21     0     0     0     7
       694.192861      188.585712       36.294404    15     0     0     0     2
       843.599544      222.508101      234.105357    24     0     0     0     1
       284.765875      383.099386      246.900871    16     2     0     0     3
      2040.785918      563.563992      525.675021     1     0     0     0     8
      1253.685298      451.232099      215.079195     1     0     0     0     3
       193.546115      486.473342      492.497888     6     4     0     0     1
       696.890936      520.196540      205.512032    15     0     0     0     2
      2491.719670      190.540179      533.238479     1     0     0     0     4
       149.233293      380.736137       35.504549     7     8     0     0     7
        42.693374      591.840283      326.884080     8     8     0     0     4
      2285.009943      301.259771      458.653464     1     0     0     0     3
       171.340770        0.990703      483.711660    14    10     0     0     3
       204.371294      245.281395      549.257483     9     6     0     0     1
      3105.151031       46.797374      491.234765     1     0     0     0     8
       979.653398      207.058466      102.350873    26     0     0     0     8
       678.068315      341.471278      457.806338    15     0     0     0     1
      2561.642860      313.625833      265.988504     1     0     0     0     4
       141.485796      353.608319      538.044823     4     4     0     0     5
       194.783718       91.048766      443.069648     6     5     0     0     5
       128.003297      368.196564       55.799549    15    14     0     0     3
       360.431013      262.105193      180.020505    13     0     0     0     6
       282.835802      181.683909      166.922856    17     1     0     0     1
       259.981372      309.094888      464.767279     8     2     0     0     7
      1271.589603      247.197427      548.379455    47     0     0     0     2
        36.846325      277.078542      405.836330     9     9     0     0     7
       337.566961      465.739012       92.229945    13     1     0     0     8
        20.503300      438.977211      331.671240     6     6     0     0     2
       473.930370      189.462244      296.487130    17     0     0     0     1
       663.640825        7.011662      344.852869    17     0     0     0     7
       118.099851      331.979850      189.529733     6     9     0     0     7
       110.673077       71.288717      536.466529    10    14     0     0     3
       647.365800      155.062939       71.113812    11     0     0     0     5
       936.901042      110.058585      513.264453    30     0     0     0     6
       149.201295      421.005704       54.370442     9     8     0     0     1
        75.650301      447.168605      337.491544     8     6     0     0     6
      1872.036872      476.612589      407.379119     1     0     0     0     1
        39.260112      356.724879      461.679876    12    12     0     0     6
      1539.961387      119.778308      509.596296     1     0     0     0     8
      1519.761441      462.760495      175.629643     1     0     0     0     5
       488.967790       37.607768      549.839989     9     0     0     0     7
        49.362798      130.988742      380.100896    12     9     0     0     2
       174.896026      350.094183      438.359202     9    10     0     0     2
       256.403080       25.609316       80.127371    12     2     0     0     2
       962.190813      423.014873       97.460902    34     0     0     0     8
      1047.666868      357.111778      221.543867    22     0     0     0     8
       172.314154      280.226300       53.897795     6     7     0     0     3
      1511.437504      524.107228      496.972989     1     0     0     0     2
       874.714563      458.073256      578.656547    27     0     0     0     5
      2274.311163      445.173766      528.565187     1     0     0     0     6
      2051.728585      556.460367       40.943472     1     0     0     0     3
      1538.286570      362.839664      380.151218     1     0     0     0     1
       131.575729      251.559782      317.359680    15    14     0     0     8
       175.769031      562.873740      413.772172     8     9     0     0     6
      1491.916347      370.203548      596.151233     1     0     0     0     6
      2505.742116      210.896074      518.332812     1     0     0     0     8
       212.618444      304.783467       19.669964     9     3     0     0     2
       119.865800      427.997049      489.988359    15    17     0     0     8
       101.093301      412.678828      224.966601    12    13     0     0     5
        79.634302      521.996073      178.487138    15    17     0     0     7
      1842.837309      592.046669      314.587704     1     0     0     0     6
      2321.321082      257.394592      324.965211     1     0     0     0     8
       191.868806      257.096443      400.453281    10     7     0     0     2
       835.484606      503.016434       90.143836    25     0     0     0     6
        98.373300      283.818850      424.854313     7     5     0     0     4
       329.512713      253.435176      170.980774     9     1     0     0     7
       603.950368      343.425054      578.306461    24     0     0     0     7
        57.008298      334.960208       82.594396     9     8     0     0     6
       271.807316      171.267095      565.875332     7     2     0     0     5
      3004.867185      390.339081      255.307343     1     0     0     0     3
        47.505800      291.716824      139.669852    10     7     0     0     2
       459.520241       73.561208      533.646998    18     0     0     0     1
        37.998800      409.920536      533.246336     8     9     0     0     6
       888.163917      470.321240      436.072324     9     0     0     0     5
       472.952780      305.044478      526.903133    12     0     0     0     2
       664.463274      393.907814      443.799160    12     0     0     0     8
       270.353865      282.161106      322.309612    14     4     0     0     6
      1506.534940      361.799556       59.302375     1     0     0     0     4
       439.840806      560.904311      192.408684    18     0     0     0     5
       694.780778      162.544283      250.965311    14     0     0     0     5
      2640.097837       43.345984      321.024062     1     0     0     0     1
      1809.913786       22.986792      484.520831     1     0     0     0     2
       757.097019      279.529965      431.935170    14     0     0     0     6
      3188.970237       24.540224      168.241825     1     0     0     0     3
       112.575720      384.238475       45.189852     8     8     0     0     8
       381.080797      194.690335      370.389481    17     0     0     0     4
       398.573218      586.137199      113.672482    12     0     0     0     1
       200.608222      558.497148      278.429251    10     4     0     0     1
      1071.966058      311.753170      272.903499    34     0     0     0     3
       265.128313      268.105361      475.313892    10     2     0     0     7
      1767.243280      576.448365      355.955353     1     0     0     0     1
       399.310252       83.407899      194.152806    21     0     0     0     7
       545.322951      389.101320      391.262288     6     0     0     0     4
       363.085802      154.172207      113.271243    19     0     0     0     7
       178.670879      419.693138       60.199945     7    10     0     0     8
       111.880792       10.038395      345.731950    12     8     0     0     5
       284.847700      354.235505      460.853860    11     1     0     0     6
        28.580801      587.298790      476.019289     7     6     0     0     5
        96.057802      451.538309      469.284725     9    11     0     0     5
        58.268301      504.910204      452.684912    17    16     0     0     3
        62.955801      318.892901       36.458088     9    10     0     0     3
       558.793097      294.389452      288.998922    10     0     0     0     6
       240.123676      592.761058      234.552411     6     2     0     0     8