ITEM: TIMESTEP
0
ITEM: NUMBER OF ATOMS
        4517
ITEM: BOX BOUNDS pp pp pp
  0.0000000E+00   5000.00000000000     
  0.0000000E+00   600.000000000000     
  0.0000000E+00   600.000000000000     
ITEM: ATOMS x y z nV nH f3 f4 orient
      1527.315350      186.648615      596.510653     1     0     0     0     1
       199.107805       69.905927      153.943068    16     5     0     0     4
       474.288108      473.321559      530.467596    17     0     0     0     5
       111.880792       10.038395      345.731950    12    10     0     0     5
       716.863298      506.992560      540.095562    29     0     0     0     8
       483.091385       61.088867      464.980275    14     0     0     0     3
      1257.259985      199.229558      370.719388    32     0     0     0     1
       251.262760      226.774354      353.696437    11     5     0     0     2
       828.323320      420.407856      391.412139    22     0     0     0     7
       308.055576      245.023457       60.313239     7     0     0     0     3
       195.933516      351.934663      225.227752    21    13     0     0     7
        77.698297      197.822205       95.923291    16    12     0     0     4
        80.797222       16.448015      444.615467    10    11     0     0     8
       262.880815      283.054309      435.957408     6     1     0     0     4
      2366.955375      229.817493      215.535944     1     0     0     0     6
       153.108726      273.742507       88.885255    13    13     0     0     4
       177.675798       50.984259      503.669681    16     8     0     0     4
       373.927989      200.193810      320.418232     8     0     0     0     7
       376.885789      131.997474      553.501252    13     0     0     0     2
      1256.856118      178.394380      331.851756    48     0     0     0     2
        75.155801      205.675061      366.316348    13    11     0     0     5
       201.086028      140.807973      138.293323    15     3     0     0     6
       441.400804      238.609407      260.172231    24     1     0     0     7
       332.681018      162.177535      360.550588    13     1     0     0     1
       501.035814      484.039016      305.033828    11     0     0     0     4
       214.549385      236.011516      390.402952    10     4     0     0     6
       470.223141      599.956211      572.643955    11     0     0     0     3
      1536.627972      561.011491      415.324364     1     0     0     0     5
       580.200822      113.927266      417.243167    11     0     0     0     1
       457.745579      236.371691      581.292633    14     0     0     0     7
       115.514963      367.524547      365.654796     5     3     0     0     5
       627.436278      232.817458      566.287774    13     0     0     0     1
       508.570510      486.467118      574.859058     7     0     0     0     8
       282.820591       11.725883      513.658076     6     2     0     0     3
       455.908865      170.266897      427.924569    11     0     0     0     1
       178.035799      184.871052      281.818415    15     8     0     0     2
       297.899309      187.381538      262.504526    12     1     0     0     4
       963.466874      191.979576      373.147104    24     0     0     0     5
        49.850801      542.019642      303.657329     8     8     0     0     2
      2509.172079      373.370808      235.219991     1     0     0     0     1
        39.286431       14.242366      337.097274     7     7     0     0     7
        80.080797      533.022306      538.262307    15    14     0     0     4
       531.043291      209.335251      218.753162    15     0     0     0     5
       111.300798      390.406820      466.214073    15    15     0     0     1
       923.190730      204.644371      297.995274    30     0     0     0     2
       445.525804      244.400826      435.308559    10     0     0     0     6
       606.837709      509.235751       65.800646    17     0     0     0     6
      2159.552087      286.084228      253.296554     1     0     0     0     4
       342.319472      170.824476      441.468520    11     0     0     0     5
       583.873308      212.923858      236.944731    18     0     0     0     3
       290.845811      366.502579       16.339261    10     0     0     0     3
       266.378313      124.727071      308.625728    13     2     0     0     8
        22.870800      114.151325      515.206377     6     4     0     0     2
       573.945817      132.769896      580.417173    16     0     0     0     4
       655.671677      252.940760      166.453960    12     0     0     0     3
        77.195212      377.105348      369.316439    15    12     0     0     1
      2228.485605      393.292704      429.751595     1     0     0     0     5
       770.005815       59.902422      118.971197    26     0     0     0     3
      2120.667704      342.223914      177.783887     1     0     0     0     1
        93.849802      452.374096      341.801963    10    10     0     0     8
       115.775796      599.498471      583.868432     6     8     0     0     1
       159.933305        4.285097      598.615408    13     7     0     0     6
       110.389463      497.604139      166.327527    14    13     0     0     5
       525.691180      419.877889      273.303412    13     0     0     0     1
       280.659807      309.344015       13.690967    10     1     0     0     3
        59.863047      202.609556      140.674299     7     7     0     0     1
       171.364768      251.516741      405.676379    10     6     0     0     7
      2088.992633       23.274691      385.708310     1     0     0     0     8
       372.243303       64.462984      404.527678    10     0     0     0     5
       140.448920        3.729637      270.665303    11     6     0     0     7
       160.628829       27.185897      510.627896    14    10     0     0     3
      2204.546705       99.443163      418.460896     1     0     0     0     3
       508.258005       36.408273      536.575046     7     0     0     0     7
      1285.362211      556.023795      551.073305    53     0     0     0     7
        82.918414      337.687759      195.798815    13    13     0     0     7
      3012.623677      189.065210      285.223078     1     0     0     0     5
        64.549043      516.650072      567.618198    11    11     0     0     2
       214.718223      484.444000        1.881816    10     8     0     0     1
      1020.093228       72.655108      239.917228    33     0     0     0     3
      2299.649682      226.230817      245.168273     1     0     0     0     6
       148.643297      391.215459      518.557231    10    11     0     0     4
       237.620805      171.798408      565.271606    18     6     0     0     5
       513.090806       19.210055      542.081878    13     0     0     0     3
       267.238092      555.995544      326.305548    18     2     0     0     1
       232.003404       91.751480      518.987457    16     5     0     0     6
       257.508302      460.725194      264.776496    10     1     0     0     6
      2023.460996      537.688227       66.483427     1     0     0     0     7
      2372.651597      216.366408      410.678502     1     0     0     0     4
       104.398302      449.975522      381.075984    14     7     0     0     4
       767.738629      314.852997      137.713158    15     0     0     0     1
       399.926916      291.523927      237.421119    12     0     0     0     6
        49.017801      259.068334      473.563256     9    11     0     0     2
        99.315797       93.806239      463.580493    18    19     0     0     8
       488.933305       65.252280      339.936223     9     0     0     0     8
      2396.274953      484.612234      507.937364     1     0     0     0     1
        69.651121      329.486445      363.625500     8     8     0     0     3
      2286.904905      231.215166       82.513951     1     0     0     0     7
       380.370805       50.734912      174.194069    17     0     0     0     5
       298.432970      534.249744      290.385649    13     0     0     0     8
       623.693315      170.614640      416.929554    21     0     0     0     3
       228.863298      261.549631      241.663681    10     4     0     0     3
        90.467550      467.438361      443.588810     6     7     0     0     5
      1995.045292      318.727246      456.494951     1     0     0     0     4
       220.214985      272.731090       53.627290    11     4     0     0     8
       697.412881      109.219266        6.539289    27     0     0     0     6
        85.900924      205.395362      442.055036    17    18     0     0     5
       437.843309      469.211679      502.647622    15     0     0     0     8
       584.545074      245.001544      303.703801    18     0     0     0     3
       309.884530      225.369458      104.106297    12     0     0     0     6
       992.183477       64.567238       17.766194    26     0     0     0     5
       631.570817      498.681567      232.932067    14     0     0     0     4
       202.378297       18.686782       80.190693    14     6     0     0     2
       544.461809      469.003477      455.166254    17     0     0     0     4
      2351.897334      343.227073      177.750033     1     0     0     0     2
        30.961083      221.170406      405.514092     7     5     0     0     3
       622.360796       49.314624      403.982238    11     0     0     0     2
       762.315482      262.265005       20.089796    17     0     0     0     4
      2636.505790      215.718498      468.766778     1     0     0     0     8
      2086.125787      187.665898      493.938116     1     0     0     0     6
       310.946553       40.862825      148.776339    18     2     0     0     3
       522.143327      518.286100      414.080741    12     0     0     0     5
       148.651547      495.667568      588.275077    10    12     0     0     7
       712.070817      192.720907      238.785927    10     0     0     0     1
       177.835802      513.634133      183.956073    12    10     0     0     3
      1327.393974      213.882803      342.869545     1     0     0     0     8
        39.334503      207.097144      557.241308     6     5     0     0     2
      2450.371007      561.435005      107.546629     1     0     0     0     6
      1722.251454      353.325318      101.044985     1     0     0     0     1
      1649.793301      293.707052      395.065833     1     0     0     0     4
       194.579311      118.553597      296.474661    10     6     0     0     1
       133.901370      425.963660      583.565586    21    14     0     0     1
       772.058305      587.942192      492.956283    20     0     0     0     4
       300.129227      507.211540       51.851899    11     4     0     0     8
       380.458093      278.061982      430.800591    10     1     0     0     1
        58.824800      496.416298      413.508489    12    10     0     0     4
       109.548877      229.335588      342.930846    11    13     0     0     6
      1435.619028      468.516459       35.185519    65     0     0     0     4
      1873.144015      478.128720      400.444637     1     0     0     0     2
      2771.381815      130.625012      416.932693     1     0     0     0     3
       541.348172       30.157208      446.901894    10     0     0     0     3
      1936.317665      272.211671      490.253169     1     0     0     0     3
       380.183891      337.894376      474.857439    14     0     0     0     5
       141.573305      130.371355      544.211341    12     8     0     0     3
        54.003301      215.483860      525.605885    12     8     0     0     1
      1975.551290      313.822272      434.565628     1     0     0     0     7
       127.858190      342.084625      234.849879     7     7     0     0     6
       176.915803       53.773157      567.648422    13     7     0     0     1
       568.058305      448.495736      599.691371    15     0     0     0     6
       163.728807      591.570414      172.159880    14     9     0     0     6
       323.281262      237.398901      494.170471    11     0     0     0     5
        60.977289      583.728338      210.381331     9    10     0     0     7
        53.437849      368.189105      309.446593    10     7     0     0     1
        25.335800       74.304137      515.074964     8     6     0     0     3
       625.260703      383.467130       10.055220    16     0     0     0     8
      1449.816541      523.194928      212.084529     1     0     0     0     1
       133.820802      283.181493       14.221854    11     9     0     0     1
       902.755699      177.139776      555.390510    24     0     0     0     4
       790.148825      469.641910      143.664964    23     0     0     0     6
        67.292299      259.160954       88.682178     9    11     0     0     8
       116.757274      426.190426      151.007589     4     4     0     0     2
       473.288286      337.390848      510.428508    21     0     0     0     1
       174.565970      307.166231       63.756920     7     6     0     0     5
       589.748308       54.403483       93.542786    22     0     0     0     4
      1966.723604      299.880617      585.919463     1     0     0     0     5
       157.992965      342.621348       93.446513    13    11     0     0     6
       258.925798       96.302126      483.368435    12     3     0     0     6
       270.353865      282.161106      322.309612    14     2     0     0     6
       353.945787      431.838183      251.367459    16     0     0     0     8
       752.600786       10.839189       50.870507    27     0     0     0     4
        69.787709      348.548261      529.964650    14    13     0     0     7
       221.083056       39.879602      372.077414    13     4     0     0     1
       168.029298      320.196145      592.914886    13    12     0     0     5
       840.715351      391.382639      458.535294    16     0     0     0     5
       127.670298      323.157913       75.054151    11    12     0     0     2
       249.509772      531.017846      200.080027    13     6     0     0     5
      1730.197697       91.447477      269.126839     1     0     0     0     6
      2160.387113      136.504405      129.719781     1     0     0     0     1
       211.278795      475.063498      263.678634    11     7     0     0     5
       262.214109      486.369941      469.246564     9     3     0     0     8
       110.295793      258.323928      225.264642    11    11     0     0     1
       312.613298      584.235316      585.719348    15     0     0     0     1
       126.230302      441.132747      361.995110    16    13     0     0     7
       854.707228      332.590181      286.957217    16     0     0     0     5
       223.359804       68.802211       34.402002    13     8     0     0     7
      1571.317694      363.741058      258.370079     1     0     0     0     1
      2085.716970      557.356305       97.609109     1     0     0     0     3
       106.158502      499.966942      377.443772    14    11     0     0     5
      1627.874864      110.466124      563.407260     1     0     0     0     1
       899.605846      446.107432      228.678004    18     0     0     0     1
       376.693315        3.531437      455.495293    14     0     0     0     4
       288.213304      492.351962      443.804903    15     0     0     0     7
        71.718797       17.719602      214.788359    10    11     0     0     4
        44.540800      579.225247      539.403466    17    11     0     0     7
       166.910869      568.394299      323.277859    13     7     0     0     7
       476.630049       88.467664      356.171226     7     0     0     0     4
        77.742298      238.743795       10.695556     7     8     0     0     2
      2400.346575      255.372904       49.942512     1     0     0     0     3
      2180.181002      308.584042      202.193172     1     0     0     0     7
      2093.120809      356.230985      242.357636     1     0     0     0     4
       495.334348       92.147447      210.939494     7     0     0     0     6
      2984.889296      160.757531      443.693815     1     0     0     0     3
       430.790733      216.422561      126.188148    14     0     0     0     1
      1262.925437      273.936480      407.878266     1     0     0     0     3
        99.773372      337.394501      500.342422     9     9     0     0     6
      1923.607079       51.050760       67.594747     1     0     0     0     5
       300.928300       26.901023      421.647936    10     4     0     0     1
       471.355791      250.364076      574.684632    16     0     0     0     2
        67.080783      561.413374      117.510341    12     7     0     0     5
       395.076944      117.016529      293.789788     8     0     0     0     1
       546.988298      372.397515      570.071924    20     0     0     0     4
       422.430803      159.125270      204.607374    18     0     0     0     1
      1657.072732      181.709533       71.066151     1     0     0     0     4
       159.632295       95.846285      166.399245     8     8     0     0     4
       428.438310      224.424016      375.683743    17     0     0     0     3
       350.225628      299.832073      130.638894     6     0     0     0     2
       480.948864       68.449008      560.231035    13     0     0     0     6
       179.438295      525.201628      468.701217    15     9     0     0     2
       293.297288       69.090995      482.834520    17     2     0     0     8
        99.958381      112.986360      342.913672     6     4     0     0     4
      1900.064305       33.780707      391.103320     1     0     0     0     8
       290.675798      444.605489      521.780999    12     1     0     0     7
       278.213304      331.073828       79.970891    15     2     0     0     3
       220.495805       42.875509      515.354578    12     4     0     0     1
        41.702299       16.893936      126.913884     8     7     0     0     7
       147.820731      224.752298      491.569858    13    12     0     0     4
      1916.212854      167.503326       72.945470     1     0     0     0     7
      2119.453935      496.057315      348.810230     1     0     0     0     5
      1981.014773      122.525571       20.660670     1     0     0     0     6
      2360.858303      462.732738      129.687607     1     0     0     0     2
        46.901523       83.508200       22.406139     9     7     0     0     7
       509.572922      151.052550      284.675656    13     0     0     0     8
       439.025718      258.498242       63.906555    11     0     0     0     1
       365.020369       53.608429      485.592080    15     0     0     0     5
      2000.381287      198.777560      295.013128     1     0     0     0     6
      2148.060059      569.378447      591.199168     1     0     0     0     6
      2303.250947      153.639510      445.117289     1     0     0     0     5
       202.078294      416.911928      275.726397    11    11     0     0     4
       323.067516      452.270659      595.496930    11     0     0     0     4
       732.235328      364.052714       99.229893    10     0     0     0     2
      1764.015150      266.593357      213.966838     1     0     0     0     7
      2631.660476      520.498169      269.072048     1     0     0     0     5
       448.082010      284.318826      421.557295    14     0     0     0     7
      1057.100786      473.700384      528.530909    30     0     0     0     4
        50.802801       10.903073      302.212756     6     5     0     0     3
       103.655110      499.146733      500.577295     7     9     0     0     4
        28.580801      194.864822      169.227476     6     5     0     0     4
       343.353288      581.224217      177.380955    16     0     0     0     5
       506.334581      267.870374      178.070474    17     0     0     0     4
       396.553300        0.701446      527.681275    11     0     0     0     6
       462.795793       23.582207      587.716414    10     0     0     0     6
      1727.974985      514.012228      405.770291     1     0     0     0     2
       235.478671      477.982872      129.429916     8     6     0     0     2
      2190.048897      312.567061      107.651659     1     0     0     0     7
       480.580797      594.160379      420.077991    12     0     0     0     2
       182.470137      160.465502        3.884236     7     7     0     0     2
       638.565813      462.581579      562.170779    16     0     0     0     4
       255.135710       12.898392        2.986451    12     3     0     0     5
      1301.361130      283.401127      461.117561    65     0     0     0     8
       817.610796      328.978520      231.828695    17     0     0     0     5
       367.348563      441.542556      147.411885    16     1     0     0     7
       442.425798      360.570870       22.326464    13     0     0     0     4
       335.328294      365.815360       92.266095    11     1     0     0     5
      1016.035825      537.591589      455.329944    26     0     0     0     6
       128.160799      519.557772      253.289791    14     9     0     0     7
      1886.560473      257.202251      204.866667     1     0     0     0     2
       113.385838      483.557710      586.005597    11    11     0     0     2
       117.624803      586.011635      407.818428    15    10     0     0     1
        97.550798        4.148168      533.078208    12    12     0     0     7
       181.528448       70.850124      350.625290     6     4     0     0     4
       460.236028      224.207469      532.266913    21     0     0     0     7
       694.192861      188.585712       36.294404    15     0     0     0     2
       843.599544      222.508101      234.105357    24     0     0     0     1
       219.510805      405.916348      255.405778    10     4     0     0     5
      2037.620769      566.729142      532.005320     1     0     0     0     6
      1252.102723      452.814674      219.826920     1     0     0     0     3
       152.243303      537.251630      271.512967     9     9     0     0     3
       696.890936      520.196540      205.512032    15     0     0     0     2
      2490.137095      188.957605      534.821054     1     0     0     0     7
       194.783718       91.048766      443.069648     6     6     0     0     8
       192.005296      186.946614       41.428066    16     9     0     0     8
      2283.427368      299.677196      466.566338     1     0     0     0     6
       150.986299      315.664725        9.218426    11     9     0     0     5
       360.180803      196.355869      291.795885    13     1     0     0     8
      3106.733606       48.379949      492.817340     1     0     0     0     2
       979.653398      207.058466      102.350873    26     0     0     0     8
       678.068315      341.471278      457.806338    15     0     0     0     1
      2561.642860      316.790983      265.988504     1     0     0     0     2
       144.117799      427.785700      441.077595    16    10     0     0     8
       113.178300      289.053514      432.288565     8     7     0     0     7
      1876.925340      483.094726       82.784733     1     0     0     0     5
       360.431013      262.105193      180.020505    13     0     0     0     6
       282.835802      181.683909      166.922856    17     1     0     0     1
       142.395134      190.653833      371.288711     9    10     0     0     8
      1271.589603      247.197427      548.379455    47     0     0     0     2
        42.248300      298.757049       25.078474     9     7     0     0     5
       337.566961      465.739012       92.229945    13     1     0     0     8
        93.875823       96.472821      593.652193     7     7     0     0     2
       473.930370      189.462244      296.487130    17     0     0     0     1
       663.640825        7.011662      344.852869    17     0     0     0     7
       158.351454      329.738837      230.292830    11    10     0     0     4
        96.795242       35.951218      514.285577     6     8     0     0     2
       647.365800      155.062939       71.113812    11     0     0     0     5
       936.901042      110.058585      513.264453    30     0     0     0     6
       218.405892      230.092312       71.320404    14     5     0     0     5
        56.264299      197.091061      591.033754    21    16     0     0     2
      1873.978948      479.710819       92.498940     1     0     0     0     7
        84.011293      471.291275      568.412040     9     9     0     0     5
      1541.543962      118.195733      511.178871     1     0     0     0     3
      1521.344016      464.343070      174.047068     1     0     0     0     6
       488.967790       37.607768      549.839989     9     0     0     0     7
       312.700517      401.109334      439.457082    14     1     0     0     6
        52.145225      508.718184      132.270351    10     6     0     0     8
        86.775796      344.451050      488.628095    10     9     0     0     1
       962.190813      423.014873       97.460902    34     0     0     0     8
      1047.666868      357.111778      221.543867    22     0     0     0     8
       144.035572      345.850786      237.338361    14     8     0     0     8
      1513.020079      522.524653      489.060115     1     0     0     0     5
       874.714563      458.073256      578.656547    27     0     0     0     5
      2277.476313      448.338915      531.730336     1     0     0     0     1
      2056.476310      554.877792       42.526047     1     0     0     0     7
      1539.869144      358.091940      381.733793     1     0     0     0     3
       167.694402      218.551907      524.102067     6     7     0     0     4
        50.503301      589.339972      406.139491    11     9     0     0     6
      1495.081497      370.203548      599.316383     1     0     0     0     3
      2507.324690      212.478649      516.750237     1     0     0     0     6
       100.757075      522.268424      586.650443    10    10     0     0     4
        53.268301      422.554781      486.744966     8     5     0     0     2
       299.253313      357.156277       89.933018    16     2     0     0     1
       369.643297      457.391204      409.589933     8     1     0     0     7
      1844.419884      593.629244      313.005130     1     0     0     0     7
      2316.573357      255.812017      320.217487     1     0     0     0     2
       212.445802      267.788386      416.375841     6     4     0     0     6
       835.484606      503.016434       90.143836    25     0     0     0     6
       215.075671      188.748993      352.542269     8     4     0     0     4
       236.338672      288.676648      153.818015     9     2     0     0     5
       603.950368      343.425054      578.306461    24     0     0     0     7
        57.108066      298.007031      102.924251     6     4     0     0     3
       251.160501      453.229467      343.704392    20     5     0     0     4
      3012.780060      391.921656      244.229319     1     0     0     0     5
        41.288344      434.151957      485.990929     9     7     0     0     3
       459.520241       73.561208      533.646998    18     0     0     0     1
        30.878299      414.727057       91.919915    10     6     0     0     8
       888.163917      470.321240      436.072324     9     0     0     0     5
       472.952780      305.044478      526.903133    12     0     0     0     2
       664.463274      393.907814      443.799160    12     0     0     0     8
       254.083299      100.294067      289.920185    15     0     0     0     5
      1504.952365      357.051832       64.050099     1     0     0     0     7
       439.840806      560.904311      192.408684    18     0     0     0     5
       694.780778      162.544283      250.965311    14     0     0     0     5
      2636.932687       52.841433      311.528613     1     0     0     0     2
      1809.913786       22.986792      484.520831     1     0     0     0     1
       757.097019      279.529965      431.935170    14     0     0     0     6
      3188.970237       24.540224      168.241825     1     0     0     0     1
       117.140802       65.360605      468.914456    12    10     0     0     3
       110.522162      100.994493      525.004330     5     3     0     0     8
       398.573218      586.137199      113.672482    12     0     0     0     1
       222.047452      408.916412      122.724565    11     6     0     0     1
      1071.966058      311.753170      272.903499    34     0     0     0     3
       180.647295      177.935992        6.054704    15    11     0     0     4
      1773.573580      579.613515      352.790203     1     0     0     0     8
       399.310252       83.407899      194.152806    21     0     0     0     7
       545.322951      389.101320      391.262288     6     0     0     0     4
       363.085802      154.172207      113.271243    19     0     0     0     7
       332.977569       28.648450      378.422911     8     1     0     0     2
       159.335872      149.000875       80.045708     8     8     0     0     5
       147.995805      415.746070       24.843190    13    10     0     0     6
       330.152299      543.409111       56.723540    17     0     0     0     3
        49.355798      328.396214      145.962241    11     7     0     0     4
       163.266943      153.908737      341.522415    11    13     0     0     7
       176.510805      489.124431      395.118733    14    10     0     0     4
       558.793097      294.389452      288.998922    10     0     0     0     6
        90.385797      262.751537      550.386760    10    10     0     0     7