ITEM: TIMESTEP
0
ITEM: NUMBER OF ATOMS
        4517
ITEM: BOX BOUNDS pp pp pp
  0.0000000E+00   5000.00000000000     
  0.0000000E+00   600.000000000000     
  0.0000000E+00   600.000000000000     
ITEM: ATOMS x y z nV nH f3 f4 orient
      1520.985050      186.648615        2.840952     1     0     0     0     1
       151.736845      150.319815      209.539523     7     6     0     0     2
       474.288108      473.321559      530.467596    17     0     0     0     5
       263.278165       65.985743      213.634120    13     9     0     0     3
       716.863298      506.992560      540.095562    29     0     0     0     8
       483.091385       61.088867      464.980275    14     0     0     0     3
      1257.259985      199.229558      370.719388    32     0     0     0     1
       238.866315      221.979888      564.274243    14     4     0     0     2
       828.323320      420.407856      391.412139    22     0     0     0     7
       308.055576      245.023457       60.313239     7     0     0     0     3
        41.804435      437.093060       37.565928    10     4     0     0     8
       144.738298      204.458353      583.692203    15    12     0     0     6
        97.875513      203.818724      138.613877    10     8     0     0     5
        20.503300      438.977211      331.671240     6     4     0     0     2
      2370.120524      223.487194      212.370795     1     0     0     0     7
       151.078380      222.722299      578.127052    10     6     0     0     3
       350.264042      592.553329      144.823745    10     1     0     0     1
       373.927989      200.193810      320.418232     8     0     0     0     7
       376.885789      131.997474      553.501252    13     0     0     0     2
      1256.856118      178.394380      331.851756    48     0     0     0     2
       257.343294      504.170947      229.852752     9     3     0     0     3
       232.003404       91.751480      518.987457    16     3     0     0     5
        88.286302      595.782518      495.189729    11     7     0     0     1
       316.733465      429.116109      584.740741    17     3     0     0     1
       501.035814      484.039016      305.033828    11     0     0     0     4
        62.349521      358.135621      483.144390     8     7     0     0     7
       470.223141      599.956211      572.643955    11     0     0     0     3
      1541.375696      562.594066      413.741789     1     0     0     0     6
       580.200822      113.927266      417.243167    11     0     0     0     1
       457.745579      236.371691      581.292633    14     0     0     0     7
        19.762208      535.603495      553.345728     6     4     0     0     7
       627.436278      232.817458      566.287774    13     0     0     0     1
       508.570510      486.467118      574.859058     7     0     0     0     8
        36.119300      552.972180      393.236067     8     6     0     0     8
       455.908865      170.266897      427.924569    11     0     0     0     1
       403.808305      456.248839      599.603847    12     1     0     0     4
       281.894199       82.604537       23.702067    11     3     0     0     4
       963.466874      191.979576      373.147104    24     0     0     0     5
        50.503301      476.121073      196.144014     9     7     0     0     1
      2501.259205      359.127634      224.141967     1     0     0     0     3
       168.995433      140.375405      546.307216    18     8     0     0     8
        55.385875      585.151665       86.751333    16     9     0     0     5
       531.043291      209.335251      218.753162    15     0     0     0     5
       154.078294      567.024744      149.148429    14     4     0     0     2
       923.190730      204.644371      297.995274    30     0     0     0     2
       445.525804      244.400826      435.308559    10     0     0     0     6
       606.837709      509.235751       65.800646    17     0     0     0     6
      2165.882386      282.919078      246.966254     1     0     0     0     8
       215.170793       44.986740      589.967091    10     6     0     0     6
       583.873308      212.923858      236.944731    18     0     0     0     3
       204.118303       87.724237      409.105492    12     4     0     0     8
        58.914875      164.562429      240.868120     6     3     0     0     3
       322.849159      593.735493      329.785901    12     4     0     0     4
       573.945817      132.769896      580.417173    16     0     0     0     4
       655.671677      252.940760      166.453960    12     0     0     0     3
       265.394304        4.204761       64.126540    18     4     0     0     2
      2226.903030      391.710129      431.334169     1     0     0     0     2
       770.005815       59.902422      118.971197    26     0     0     0     3
      2125.415429      340.641340      169.871013     1     0     0     0     4
       276.931986      599.097050      340.676940    21     3     0     0     8
       283.583299      555.505515      512.876622    17     3     0     0     4
       244.352656      337.840176      515.438512    13     7     0     0     6
       212.361406      353.573257      494.859859    10     6     0     0     7
       525.691180      419.877889      273.303412    13     0     0     0     1
        52.081548      299.013051      425.149518     9     6     0     0     3
       249.900578      472.754176      346.999097    11     3     0     0     5
        41.122325      447.284185        0.790575     8     7     0     0     6
      2101.653231       16.944392      388.873460     1     0     0     0     5
        99.855798       64.017213      170.555477     9     6     0     0     5
       130.758302      339.210983      355.849223    17     4     0     0     2
        99.255792      382.432149      232.805730     7     4     0     0     2
      2202.964130      107.356037      413.713172     1     0     0     0     8
       508.258005       36.408273      536.575046     7     0     0     0     7
      1285.362211      556.023795      551.073305    53     0     0     0     7
       119.208076      139.213147       14.518541    11     7     0     0     1
      3004.710803      190.647785      283.640504     1     0     0     0     7
        84.648302      576.206812      442.726013    12     5     0     0     8
       236.297530       62.937013      544.429293     9     7     0     0     7
      1020.093228       72.655108      239.917228    33     0     0     0     3
      2301.232257      221.483092      234.090250     1     0     0     0     5
        79.375803      185.435163       60.645170     9     8     0     0     1
       262.470811      251.898473      184.773389    13     4     0     0     5
       513.090806       19.210055      542.081878    13     0     0     0     3
       137.295793      327.678731       16.991042     9     9     0     0     7
       157.193300      470.909559      450.799276    15     9     0     0     2
       194.471818      429.095272      544.213365     5     2     0     0     7
      2006.052673      551.931400       58.570553     1     0     0     0     2
      2366.321298      219.531558      401.183053     1     0     0     0     5
       257.508302      460.725194      264.776496    10     4     0     0     3
       767.738629      314.852997      137.713158    15     0     0     0     1
       399.926916      291.523927      237.421119    12     0     0     0     6
       273.093883      306.133329       24.004115     9     2     0     0     8
       270.793149      376.361071      118.858944    14     4     0     0     6
       488.933305       65.252280      339.936223     9     0     0     0     8
      2397.857528      476.699359      509.519939     1     0     0     0     4
       315.070051      330.875260      570.392803    13     1     0     0     4
      2288.487480      229.632591       80.931376     1     0     0     0     7
       201.858293      498.146065      509.582685     9     7     0     0     2
       209.183305      156.061003      176.290227     6     4     0     0     7
       623.693315      170.614640      416.929554    21     0     0     0     3
       161.131480      362.147625      172.390318    18    11     0     0     1
       136.053316       97.395588      375.437288    11     6     0     0     7
      1993.462717      313.979522      458.077526     1     0     0     0     5
        41.160799      251.752813      200.747680    10     3     0     0     7
       697.412881      109.219266        6.539289    27     0     0     0     6
        93.183149       93.505319      275.608483     8     7     0     0     2
       437.843309      469.211679      502.647622    15     0     0     0     8
       584.545074      245.001544      303.703801    18     0     0     0     3
        75.155801      205.675061      366.316348    13     9     0     0     1
       992.183477       64.567238       17.766194    26     0     0     0     5
       631.570817      498.681567      232.932067    14     0     0     0     4
       113.178300      289.053514      432.288565     8     7     0     0     5
        52.275456      379.785530      512.529314     5     2     0     0     3
      2353.479909      341.644498      176.167458     1     0     0     0     3
        96.560800      535.525021       62.423740     9     9     0     0     4
       622.360796       49.314624      403.982238    11     0     0     0     2
       762.315482      262.265005       20.089796    17     0     0     0     4
      2644.418664      229.961671      473.514503     1     0     0     0     6
      2084.543212      182.918174      498.685840     1     0     0     0     3
       260.133302      222.446241      515.430701    13    10     0     0     2
       522.143327      518.286100      414.080741    12     0     0     0     5
       150.735400      405.253007        8.132064    16     8     0     0     1
       712.070817      192.720907      238.785927    10     0     0     0     1
       281.408225      213.978378      577.468570    12     4     0     0     1
      1324.228824      210.717653      349.199844     1     0     0     0     3
       176.510805      489.124431      395.118733    14     7     0     0     7
      2450.371007      558.269855       98.051180     1     0     0     0     4
      1722.251454      350.160169       97.879835     1     0     0     0     3
      1651.375876      288.959328      387.152959     1     0     0     0     2
       204.612199      591.564569      158.572175    12     4     0     0     8
        78.111873      483.680072      532.924786    19    13     0     0     8
       772.058305      587.942192      492.956283    20     0     0     0     4
       361.430315      118.701974      191.829849    12     3     0     0     2
       326.083299      457.556792      144.076967    10     2     0     0     6
        62.030801      168.822682       81.064194    11     7     0     0     8
       258.220796      387.832932      241.472335    12     6     0     0     2
      1435.619028      468.516459       35.185519    65     0     0     0     4
      2040.433012      255.086689        1.731519     1     0     0     0     5
      2768.216665      130.625012      413.767544     1     0     0     0     2
       541.348172       30.157208      446.901894    10     0     0     0     3
      1941.065390      276.959395      498.166043     1     0     0     0     7
       380.183891      337.894376      474.857439    14     0     0     0     5
       206.680486      459.564773       90.604318    14     7     0     0     5
       110.420801      215.463931       17.672472     9    10     0     0     2
      1978.716440      313.822272      437.730778     1     0     0     0     8
        68.062481      199.531746      555.356171    10     8     0     0     5
       134.152994      267.041284      399.628546    10     6     0     0     4
       568.058305      448.495736      599.691371    15     0     0     0     6
       365.020369       53.608429      485.592080    15     0     0     0     2
       323.281262      237.398901      494.170471    11     0     0     0     5
       301.709220       38.550192      515.077547    14     3     0     0     1
       232.065788      149.307865      337.649059     6     4     0     0     1
        69.651121      329.486445      363.625500     8     6     0     0     1
       625.260703      383.467130       10.055220    16     0     0     0     8
      1449.816541      526.360078      215.249678     1     0     0     0     2
       297.899309      187.381538      262.504526    12     5     0     0     2
       902.755699      177.139776      555.390510    24     0     0     0     4
       790.148825      469.641910      143.664964    23     0     0     0     6
       132.605798       45.673140      362.870352    15     6     0     0     3
        90.371413      517.690161      338.154074    10     6     0     0     1
       473.288286      337.390848      510.428508    21     0     0     0     1
       241.163301       45.280623      596.280371    11     6     0     0     7
       589.748308       54.403483       93.542786    22     0     0     0     4
      1963.558454      306.210916      595.414911     1     0     0     0     7
       223.780794      363.879921       60.509569    14     4     0     0     8
       152.925798      109.130730      405.809791    11     7     0     0     5
       133.943300      178.862408      570.467413    18     8     0     0     4
       353.945787      431.838183      251.367459    16     0     0     0     5
       752.600786       10.839189       50.870507    27     0     0     0     4
       145.259294      475.568798      535.617130    12     6     0     0     5
       244.724306      383.358349      415.430931     6     6     0     0     8
       147.530305      546.103904       58.651773    10     5     0     0     3
       840.715351      391.382639      458.535294    16     0     0     0     5
       151.423296        7.098777       69.526346    13     6     0     0     4
        51.063299      243.790512      288.518473    10     3     0     0     3
      1731.780272       86.699753      277.039714     1     0     0     0     6
      2165.134838      141.252130      124.972056     1     0     0     0     6
       169.040143      271.008196      177.577223    18     7     0     0     3
       195.933516      351.934663      225.227752    21    12     0     0     3
       151.586305      510.153504      155.949391    16     7     0     0     4
        63.284374      345.190616       55.549958     6     5     0     0     1
       438.848314        1.849536      599.720455     9     1     0     0     6
       854.707228      332.590181      286.957217    16     0     0     0     5
        39.111724      236.328806      391.416083    11     5     0     0     2
      1576.065419      368.488783      250.457205     1     0     0     0     5
      2084.134395      558.938880      102.356833     1     0     0     0     1
       108.682117      250.716504      514.278759     9     8     0     0     1
      1629.457439      112.048699      568.154984     1     0     0     0     7
       899.605846      446.107432      228.678004    18     0     0     0     1
       206.825969      411.832498      520.934478    13     6     0     0     6
       205.908800       74.119382      106.350453     7     3     0     0     6
       236.865746       38.946313      180.218803    17     8     0     0     8
        58.457300      223.434970      467.151250     6     6     0     0     5
       102.518297       97.057825      567.995578    18    10     0     0     8
       476.630049       88.467664      356.171226     7     0     0     0     4
       209.041155       50.038310      177.146189     8     6     0     0     7
      2405.094300      253.790329       51.525086     1     0     0     0     8
      2175.433278      316.496916      197.445448     1     0     0     0     1
      2094.703384      360.978709      240.775061     1     0     0     0     6
       495.334348       92.147447      210.939494     7     0     0     0     6
      2988.054445      154.427232      440.528666     1     0     0     0     5
       430.790733      216.422561      126.188148    14     0     0     0     1
      1261.342862      278.684205      412.625990     1     0     0     0     7
       196.228303       49.031612      330.013415     8     6     0     0     8
      1922.024504       55.798485       69.177321     1     0     0     0     6
        61.556025      497.640678      390.324828     8     6     0     0     5
       471.355791      250.364076      574.684632    16     0     0     0     2
       220.214985      272.731090       53.627290    11     4     0     0     5
       395.076944      117.016529      293.789788     8     0     0     0     1
       546.988298      372.397515      570.071924    20     0     0     0     4
       422.430803      159.125270      204.607374    18     0     0     0     1
      1655.490158      180.126958       69.483576     1     0     0     0     3
       119.693221      398.348359      319.912673     7     4     0     0     8
       208.793674      255.500019      319.184367    18     7     0     0     8
       350.225628      299.832073      130.638894     6     0     0     0     2
       480.948864       68.449008      560.231035    13     0     0     0     6
       270.918235      256.668888      253.167364    12     5     0     0     5
       302.920793      525.706701       43.803185    15     0     0     0     5
       270.568424      157.444931      437.601197    19     9     0     0     5
      1896.899156       27.450408      387.938170     1     0     0     0     4
       134.595796      402.752026      406.762496    20    10     0     0     6
       297.845647      473.483404      292.498344    10     3     0     0     6
       241.201316      332.819604      479.887270    11     6     0     0     8
       266.378313      124.727071      308.625728    13     6     0     0     8
        93.875823       96.472821      593.652193     7     4     0     0     6
      1919.378004      161.173027       72.945470     1     0     0     0     4
      2116.288785      499.222464      348.810230     1     0     0     0     1
      1982.597348      130.438445       25.408395     1     0     0     0     4
      2359.275728      464.315313      128.105032     1     0     0     0     4
       144.282139       20.924231      128.014833    11     8     0     0     3
       509.572922      151.052550      284.675656    13     0     0     0     8
       439.025718      258.498242       63.906555    11     0     0     0     1
       364.230791       91.962884      458.892207    12     2     0     0     6
      2000.381287      189.282111      295.013128     1     0     0     0     4
      2143.312335      574.126171      586.451444     1     0     0     0     6
      2303.250947      153.639510      445.117289     1     0     0     0     7
       212.453294      478.294749      164.509903    11     6     0     0     1
       128.003297      368.196564       55.799549    15    11     0     0     4
       732.235328      364.052714       99.229893    10     0     0     0     2
      1770.345449      272.923656      210.801688     1     0     0     0     3
      2631.660476      517.333020      269.072048     1     0     0     0     1
       448.082010      284.318826      421.557295    14     0     0     0     7
      1057.100786      473.700384      528.530909    30     0     0     0     4
       281.071727      182.879414      537.690713    10     4     0     0     5
       195.239305       27.728822      498.688919    12     3     0     0     8
       341.853693      305.093159      186.782472    13     2     0     0     7
       343.353288      581.224217      177.380955    16     0     0     0     5
       506.334581      267.870374      178.070474    17     0     0     0     4
       396.553300        0.701446      527.681275    11     0     0     0     6
       462.795793       23.582207      587.716414    10     0     0     0     6
      1727.974985      507.681929      412.100590     1     0     0     0     2
       190.509262      335.585754      172.992034    11     6     0     0     3
      2194.796621      310.984486      106.069084     1     0     0     0     8
       480.580797      594.160379      420.077991    12     0     0     0     2
       210.198602      422.936192      533.232970    14     5     0     0     5
       638.565813      462.581579      562.170779    16     0     0     0     4
       138.490503       39.957824      462.775272    16     5     0     0     8
      1301.361130      283.401127      461.117561    65     0     0     0     8
       817.610796      328.978520      231.828695    17     0     0     0     5
       160.200581      554.875441      599.343716     8     7     0     0     1
       442.425798      360.570870       22.326464    13     0     0     0     4
        82.993303      159.592211      555.246780    10     8     0     0     4
      1016.035825      537.591589      455.329944    26     0     0     0     6
        58.824800      496.416298      413.508489    12     5     0     0     3
      1884.977898      258.784826      200.118942     1     0     0     0     4
       293.227459      158.414740      334.181039    17     3     0     0     2
       341.120805      571.385996       16.468359    13     1     0     0     8
       137.022947      477.368001      486.745530     6     8     0     0     4
       238.888307      232.988954      176.635916    17     5     0     0     3
       460.236028      224.207469      532.266913    21     0     0     0     7
       694.192861      188.585712       36.294404    15     0     0     0     2
       843.599544      222.508101      234.105357    24     0     0     0     1
       131.957164      178.736550      122.071208    13     8     0     0     6
      2039.203343      565.146567      533.587895     1     0     0     0     3
      1245.772423      455.979824      222.992069     1     0     0     0     4
       121.858002      458.710678      129.243549    12     4     0     0     7
       696.890936      520.196540      205.512032    15     0     0     0     2
      2498.049969      190.540179      530.073329     1     0     0     0     8
       286.790788      565.710853      210.383151    16     2     0     0     3
        37.768301      582.287748      183.450119     9     4     0     0     6
      2291.340243      301.259771      471.314063     1     0     0     0     3
       256.878297      176.187928      545.960035    20    10     0     0     1
       190.068387      266.143050      231.614797     9     8     0     0     2
      3106.733606       48.379949      499.147639     1     0     0     0     3
       979.653398      207.058466      102.350873    26     0     0     0     8
       678.068315      341.471278      457.806338    15     0     0     0     1
      2556.895136      315.208408      267.571079     1     0     0     0     2
       323.890794      245.379020      159.723906    11     0     0     0     6
        45.190801      347.926566      135.749584    11     6     0     0     2
      1873.760190      483.094726       85.949883     1     0     0     0     8
       360.431013      262.105193      180.020505    13     0     0     0     6
       269.280407      565.829106      443.081851    13     5     0     0     6
       121.530347      594.741072      254.219579    11    11     0     0     6
      1271.589603      247.197427      548.379455    47     0     0     0     2
        25.702341        3.498067      301.724732     7     4     0     0     7
       337.566961      465.739012       92.229945    13     1     0     0     8
       264.068315      571.344678        2.001833    10     3     0     0     3
       473.930370      189.462244      296.487130    17     0     0     0     1
       663.640825        7.011662      344.852869    17     0     0     0     7
       221.675294      559.855281       48.926888    10     8     0     0     8
        62.777853      237.474680      356.487278    11     6     0     0     1
       647.365800      155.062939       71.113812    11     0     0     0     5
       936.901042      110.058585      513.264453    30     0     0     0     6
       256.102237      447.345369      146.134563    12     4     0     0     5
       220.796297      276.263804       15.452911    18     8     0     0     7
      1872.396373      474.963094       94.081515     1     0     0     0     4
        49.270502      312.526023      494.446149     9     6     0     0     2
      1549.456836      113.448009      512.761446     1     0     0     0     6
      1527.674315      454.847621      177.212218     1     0     0     0     3
       488.967790       37.607768      549.839989     9     0     0     0     7
       152.243303      537.251630      271.512967     9     6     0     0     1
        79.075799      398.126314      188.916273    16     5     0     0     7
       283.818437      159.847586       10.496915    10     5     0     0     4
       962.190813      423.014873       97.460902    34     0     0     0     8
      1047.666868      357.111778      221.543867    22     0     0     0     8
        80.080797      533.022306      538.262307    15     4     0     0     5
      1516.185229      519.359503      495.390414     1     0     0     0     3
       874.714563      458.073256      578.656547    27     0     0     0     5
      2283.806612      445.173766      541.225785     1     0     0     0     8
      2056.476310      554.877792       42.526047     1     0     0     0     5
      1547.782019      359.674515      389.646667     1     0     0     0     5
        48.113149       98.684170      102.408887     6     4     0     0     7
        43.597208      545.525888      344.436530     6     4     0     0     5
      1504.576946      367.038398      599.316383     1     0     0     0     1
      2502.576966      214.061224      515.167662     1     0     0     0     3
        52.177543      222.164433      155.527080    10     6     0     0     1
       116.485803      465.750617      303.242490    12    11     0     0     2
       136.356501       82.030844      301.745921     9     8     0     0     4
       332.736539      334.283936      276.527854     6     2     0     0     4
      1842.837309      598.376968      308.257405     1     0     0     0     5
      2307.077908      249.481718      317.052337     1     0     0     0     7
       443.125162       47.954033      361.523535    13     1     0     0     1
       835.484606      503.016434       90.143836    25     0     0     0     6
       118.538301       75.808464      176.768458     6     5     0     0     1
       275.881270      352.570645      182.736434    19     7     0     0     3
       603.950368      343.425054      578.306461    24     0     0     0     7
       148.565954      577.045009      553.265816     9     9     0     0     4
       177.835802      513.634133      183.956073    12     6     0     0     2
      3014.362634      390.339081      239.481595     1     0     0     0     4
       150.986299      315.664725        9.218426    11     7     0     0     4
       459.520241       73.561208      533.646998    18     0     0     0     1
       120.394366       39.753354      128.767709     8     7     0     0     4
       888.163917      470.321240      436.072324     9     0     0     0     5
       472.952780      305.044478      526.903133    12     0     0     0     2
       664.463274      393.907814      443.799160    12     0     0     0     8
       110.673077       71.288717      536.466529    10     6     0     0     2
      1506.534940      355.469257       71.962973     1     0     0     0     8
       439.840806      560.904311      192.408684    18     0     0     0     5
       694.780778      162.544283      250.965311    14     0     0     0     5
      2644.845561       54.424008      306.780888     1     0     0     0     1
      1809.913786       29.317092      494.016280     1     0     0     0     7
       757.097019      279.529965      431.935170    14     0     0     0     6
      3182.639938       27.705374      171.406975     1     0     0     0     7
       221.460802       21.470952      539.190023     8     7     0     0     4
       205.976148      103.287393      109.255781    13     7     0     0     8
       398.573218      586.137199      113.672482    12     0     0     0     1
       266.675798      202.978083      298.522844     9     7     0     0     1
      1071.966058      311.753170      272.903499    34     0     0     0     3
        97.550798        4.148168      533.078208    12     6     0     0     6
      1768.825855      581.196090      360.703077     1     0     0     0     7
       399.310252       83.407899      194.152806    21     0     0     0     7
       545.322951      389.101320      391.262288     6     0     0     0     4
        41.971586       34.363515      185.167008     8     5     0     0     6
        75.415890       30.047203      374.705190    18    11     0     0     2
        34.369529      277.313333      279.925012     7     6     0     0     4
       187.067293      581.144956      100.687917    10     4     0     0     7
       283.113298      388.486062      229.137240    15     2     0     0     3
       163.266943      153.908737      341.522415    11     6     0     0     7
        67.669220      468.843885      117.282621     6     6     0     0     5
       236.262995      575.877570      322.174335    12     5     0     0     2
       558.793097      294.389452      288.998922    10     0     0     0     6
       153.558487      249.983520       74.793378    12     4     0     0     1