ITEM: TIMESTEP
0
ITEM: NUMBER OF ATOMS
        4518
ITEM: BOX BOUNDS pp pp pp
  0.0000000E+00   5000.00000000000     
  0.0000000E+00   600.000000000000     
  0.0000000E+00   600.000000000000     
ITEM: ATOMS x y z nV nH f3 f4 orient
      1520.985050      180.318316        9.171252     1     0     0     0     6
       423.338304      442.078324      377.202316    10     1     0     0     1
       236.262995      575.877570      322.174335    12     7     0     0     8
        49.401800      590.614118      136.769746    14    10     0     0     1
       716.863298      506.992560      540.095562    29     0     0     0     8
       483.091385       61.088867      464.980275    14     0     0     0     3
      1257.259985      199.229558      370.719388    32     0     0     0     1
       328.033311      501.986452      530.081840    14     2     0     0     1
       828.323320      420.407856      391.412139    22     0     0     0     7
        88.286302      595.782518      495.189729    11     6     0     0     2
       289.683305      359.620016      402.668138    12     4     0     0     2
       244.352656      337.840176      515.438512    13     7     0     0     5
       254.083299      100.294067      289.920185    15     3     0     0     5
       360.587383      191.037383      407.203475    15     0     0     0     3
      2366.955375      229.817493      215.535944     1     0     0     0     6
       393.107276      441.542556      166.840299    15     1     0     0     1
       262.893297      590.549350      490.876430    15     5     0     0     2
       119.808298      480.720578      257.928541     9     8     0     0     1
       218.153306      114.149895      457.560232     9     6     0     0     7
      1256.856118      178.394380      331.851756    48     0     0     0     2
       101.093301      412.678828      224.966601    12     4     0     0     7
       315.475786      534.396717      502.033512    13     2     0     0     3
        50.508224      209.693226      189.090193     8     7     0     0     1
       449.355877      460.869174      307.482487    17     1     0     0     3
       501.035814      484.039016      305.033828    11     0     0     0     4
        46.901523       83.508200       22.406139     9     6     0     0     7
       355.193315       52.075601      564.840595    10     0     0     0     1
      1535.045397      556.263767      410.576640     1     0     0     0     4
       580.200822      113.927266      417.243167    11     0     0     0     1
       457.745579      236.371691      581.292633    14     0     0     0     7
       182.531016       77.402642      404.660014    10     4     0     0     8
       627.436278      232.817458      566.287774    13     0     0     0     1
       508.570510      486.467118      574.859058     7     0     0     0     8
       130.495876      125.439315      591.611305    12     4     0     0     2
       188.288598      186.092867      365.737902    10     4     0     0     2
       110.295793      258.323928      225.264642    11     6     0     0     4
       290.490800      513.658738       72.442535    10     4     0     0     5
       963.466874      191.979576      373.147104    24     0     0     0     5
       403.618303      498.051234      263.454608    16     0     0     0     8
      2494.928906      355.962485      230.472266     1     0     0     0     6
       181.598596      498.122369       45.497513     8     7     0     0     8
       140.204710      269.981157      247.628230     9     6     0     0     8
       531.043291      209.335251      218.753162    15     0     0     0     5
      1899.992279       29.060851      378.033342     1     0     0     0     8
       923.190730      204.644371      297.995274    30     0     0     0     2
       442.298296      246.731101      419.381352    11     0     0     0     7
       606.837709      509.235751       65.800646    17     0     0     0     6
      2159.552087      276.588779      262.792003     1     0     0     0     1
       252.480806      509.827911      485.886872     9     7     0     0     3
       583.873308      212.923858      236.944731    18     0     0     0     3
       136.488298      453.554372      505.340619    10     5     0     0     8
        50.503301      476.121073      196.144014     9     4     0     0     3
        79.075799      398.126314      188.916273    16     4     0     0     2
       573.945817      132.769896      580.417173    16     0     0     0     4
       655.671677      252.940760      166.453960    12     0     0     0     3
       546.608293      540.568893      469.707818    10     1     0     0     3
      2237.981053      402.788153      429.751595     1     0     0     0     2
       770.005815       59.902422      118.971197    26     0     0     0     3
      2120.667704      342.223914      171.453588     1     0     0     0     1
       128.355798      518.186783      360.370799    11     6     0     0     2
       137.327505      427.823234      370.105537    15     5     0     0     6
       158.668248      223.615715      396.333333     9     7     0     0     6
       289.093450      109.441326      376.953057    12     4     0     0     2
       525.691180      419.877889      273.303412    13     0     0     0     1
        49.915800       56.974380      145.079401    11     7     0     0     5
       382.745286      112.442414      554.969375    10     1     0     0     3
       168.029298      320.196145      592.914886    13    12     0     0     1
      2104.818381       13.779242      392.038609     1     0     0     0     7
       435.585802       40.217724       24.028077    13     1     0     0     5
       291.108482      525.417516      422.798169    19     8     0     0     5
       340.008287      329.981525      106.700250     6     0     0     0     3
      2206.129280      101.025738      413.713172     1     0     0     0     6
       508.258005       36.408273      536.575046     7     0     0     0     7
      1285.362211      556.023795      551.073305    53     0     0     0     7
       280.476240      349.764290      442.870921     9     6     0     0     2
      3006.293378      182.734911      288.388228     1     0     0     0     6
       186.123165      529.209749      479.787783    16     5     0     0     4
       272.216239      351.278791      153.218282    12     4     0     0     6
      1020.093228       72.655108      239.917228    33     0     0     0     3
      2291.736808      227.813392      230.925100     1     0     0     0     6
       137.295793      327.678731       16.991042     9     6     0     0     7
       205.908800       74.119382      106.350453     7     4     0     0     3
       513.090806       19.210055      542.081878    13     0     0     0     3
       315.093309       79.898453      369.542877    17     3     0     0     2
       230.566537      178.018404      422.920508    10     6     0     0     8
       149.233293      380.736137       35.504549     7     4     0     0     5
      1994.974650      566.174574       63.318278     1     0     0     0     6
      2366.321298      213.201259      404.348203     1     0     0     0     8
       422.177025      199.925732       83.943209    11     0     0     0     4
       767.738629      314.852997      137.713158    15     0     0     0     1
       329.586170       35.361161      417.971123    15     1     0     0     7
       358.252553      350.231060      403.087403     8     1     0     0     1
       165.743303      574.500513        9.108578    10     4     0     0     5
       488.933305       65.252280      339.936223     9     0     0     0     8
      2404.187827      486.194808      500.024490     1     0     0     0     1
       336.102810      193.845117       10.869413    12     4     0     0     8
      2297.982929      232.797741       74.601077     1     0     0     0     8
       163.533800      179.779724      487.270445    11     6     0     0     7
       279.871806      230.682393      241.897474     9     6     0     0     1
       623.693315      170.614640      416.929554    21     0     0     0     3
        55.385875      585.151665       86.751333    16     5     0     0     8
       139.301301      267.583643      383.489346    16     3     0     0     4
      2002.958166      310.814372      458.077526     1     0     0     0     1
       243.860796      174.475725      268.688641    17     3     0     0     2
       697.412881      109.219266        6.539289    27     0     0     0     6
       398.193824      287.910282       98.116562    12     2     0     0     3
        36.880800      293.569453      570.477250    12     4     0     0     4
       584.545074      245.001544      303.703801    18     0     0     0     3
       179.727520      566.138615      124.726233     6     4     0     0     7
       992.183477       64.567238       17.766194    26     0     0     0     5
       631.570817      498.681567      232.932067    14     0     0     0     4
       362.725786      439.298357       86.387569    12     0     0     0     5
       155.328294      178.368422      341.111446    10     3     0     0     3
      2347.149610      338.479348      169.837159     1     0     0     0     8
       117.408304      335.443103      318.063830    10     6     0     0     6
       622.360796       49.314624      403.982238    11     0     0     0     2
       762.315482      262.265005       20.089796    17     0     0     0     4
      2646.001239      231.544246      471.931928     1     0     0     0     3
      2082.960637      184.500748      503.433565     1     0     0     0     2
        60.066801      401.238781      400.795216    18     6     0     0     2
       522.143327      518.286100      414.080741    12     0     0     0     5
       218.563381      303.301926      563.977626    14     6     0     0     4
       712.070817      192.720907      238.785927    10     0     0     0     1
        39.058301      549.576020       41.980779     9     6     0     0     8
      1317.898525      213.882803      352.364994     1     0     0     0     6
       185.005800       21.067888       57.817021    10     8     0     0     1
      2440.875558      561.435005       88.555731     1     0     0     0     8
      1711.173430      354.907893       96.297260     1     0     0     0     7
      1651.375876      285.794178      383.987809     1     0     0     0     2
       187.802846      228.525797      240.470843    14     9     0     0     8
        97.063303      166.420648       27.357984    11     5     0     0     3
       772.058305      587.942192      492.956283    20     0     0     0     4
       379.267255      274.959566      450.793250     9     2     0     0     5
        62.117325      347.907221       38.076916     5     4     0     0     6
       204.371294      245.281395      549.257483     9     7     0     0     4
       289.388292      538.406464      132.520383     8     4     0     0     7
      1435.619028      468.516459       35.185519    65     0     0     0     4
      2043.598162      255.086689        4.896669     1     0     0     0     1
      2760.303791      135.372736      415.350118     1     0     0     0     6
       541.348172       30.157208      446.901894    10     0     0     0     3
      1934.735091      280.124545      495.000893     1     0     0     0     4
       380.183891      337.894376      474.857439    14     0     0     0     5
       214.549385      236.011516      390.402952    10     4     0     0     2
        55.546082      430.300283      223.990075    11     6     0     0     7
      1983.464164      318.569996      429.817904     1     0     0     0     5
       232.161307      181.681662      214.294579    13     8     0     0     2
       297.548191      211.928553      321.354451     5     1     0     0     1
       568.058305      448.495736      599.691371    15     0     0     0     6
       363.449609       80.224977      498.131204    14     1     0     0     2
       182.833299       65.709085      341.564367    10     5     0     0     2
       166.684106      173.811643      264.264158    15     4     0     0     6
       349.975644      210.495724      157.149610    11     5     0     0     6
       380.458093      278.061982      430.800591    10     1     0     0     1
       625.260703      383.467130       10.055220    16     0     0     0     8
      1457.729415      518.447204      213.667103     1     0     0     0     5
       159.933305      163.747549      516.427706     9     7     0     0     1
       902.755699      177.139776      555.390510    24     0     0     0     4
       790.148825      469.641910      143.664964    23     0     0     0     6
       619.319354      330.885043       28.277057    18     1     0     0     5
        87.931067      455.910223      564.948175    14     5     0     0     6
       473.288286      337.390848      510.428508    21     0     0     0     1
       386.582424      366.021916      230.486405    18     1     0     0     4
       575.353288      147.794496       83.643438    22     0     0     0     2
      1960.393305      303.045766      598.580061     1     0     0     0     7
       184.015794      199.598915      547.622647    11     7     0     0     2
       265.665788      557.317758      558.914177    13     7     0     0     7
       195.314302      215.334625       29.360131    15     7     0     0     1
       276.931986      599.097050      340.676940    21     8     0     0     6
       752.600786       10.839189       50.870507    27     0     0     0     4
       115.514963      367.524547      365.654796     5     2     0     0     3
        21.255872      111.476505      550.672599    10     3     0     0     1
        34.274299      375.218326      135.585429     7     3     0     0     2
       840.715351      391.382639      458.535294    16     0     0     0     5
       124.678164      233.942159      188.123710     6     6     0     0     6
       202.560792      593.769008       76.081539     8     6     0     0     3
      1734.945421       80.369453      283.370013     1     0     0     0     7
      2166.717413      145.999854      117.059182     1     0     0     0     4
       265.031529      263.579114       11.384740     8     6     0     0     7
       166.810792      384.143158      238.943230    11     5     0     0     7
       174.896026      350.094183      438.359202     9     7     0     0     5
       303.457704      115.518721      360.555534    11     5     0     0     5
       338.352725       19.761307       28.313765    11     5     0     0     8
       854.707228      332.590181      286.957217    16     0     0     0     5
       183.767376      269.516306      360.948534     8     6     0     0     2
      1563.404820      381.149381      247.292055     1     0     0     0     8
      2071.473797      562.104030      102.356833     1     0     0     0     4
       106.281854      253.459143      126.705921    17     7     0     0     2
      1631.040014      104.135825      566.572409     1     0     0     0     3
       899.605846      446.107432      228.678004    18     0     0     0     1
       172.350730      368.666473      597.644604     6     5     0     0     2
        68.613969       75.876317      578.829771    18     7     0     0     1
       334.455797      477.039283      513.914758    14     1     0     0     7
       386.715806      176.097261      237.040833    13     2     0     0     5
       232.764480      597.671401      563.286611    11     6     0     0     5
       476.630049       88.467664      356.171226     7     0     0     0     4
       201.064727       59.577715      302.150555    10     4     0     0     5
      2401.929150      260.120628       42.029638     1     0     0     0     2
      2183.346152      308.584042      199.028023     1     0     0     0     2
      2094.703384      357.813559      243.940211     1     0     0     0     2
       495.334348       92.147447      210.939494     7     0     0     0     6
      2984.889296      151.262082      443.693815     1     0     0     0     6
       430.790733      216.422561      126.188148    14     0     0     0     1
      1262.925437      286.597079      420.538865     1     0     0     0     3
        63.284374      345.190616       55.549958     6     4     0     0     1
      1923.607079       60.546209       70.759896     1     0     0     0     3
       237.108293      558.136431      115.184304     9     6     0     0     8
       471.355791      250.364076      574.684632    16     0     0     0     2
       210.144172      416.229149      185.696234    15     3     0     0     3
       395.076944      117.016529      293.789788     8     0     0     0     1
       546.988298      372.397515      570.071924    20     0     0     0     4
       422.430803      159.125270      204.607374    18     0     0     0     1
      1649.159858      180.126958       66.318426     1     0     0     0     6
        98.124803       83.882180      167.366931    13     6     0     0     5
        78.650812      525.465424      141.972362    12     4     0     0     7
       329.512713      253.435176      170.980774     9     1     0     0     7
       480.948864       68.449008      560.231035    13     0     0     0     6
       159.971205      513.539427      511.673285    14     7     0     0     3
        61.651250      480.902319       96.830873     9     6     0     0     8
       104.295801      352.669694      373.332559    12     3     0     0     8
       178.928660      363.654942      428.138541     9     7     0     0     7
       191.757869       86.353186      141.080407     8     5     0     0     1
       132.115800      160.498293      399.670763    13    10     0     0     8
       211.060565      392.703976      329.280565     8     6     0     0     2
       102.145097      189.706187      459.899408    12     6     0     0     5
       210.618303      135.471819      594.994327    17     6     0     0     5
      1924.125728      156.425302       74.528045     1     0     0     0     5
      2124.201659      497.639890      340.897356     1     0     0     0     4
      1995.257946      120.942996       31.738694     1     0     0     0     2
      2364.023452      465.897888      136.017906     1     0     0     0     1
       267.453294      228.244209      558.780809    15     1     0     0     4
       509.572922      151.052550      284.675656    13     0     0     0     8
       439.025718      258.498242       63.906555    11     0     0     0     1
       475.767389      400.814079      311.485090    13     1     0     0     5
      2000.381287      179.786662      285.517679     1     0     0     0     2
       358.673296      241.445106      259.680138    16     2     0     0     5
      2292.172924      148.891785      443.534714     1     0     0     0     8
       170.508806      387.272491      516.629824    10     6     0     0     1
       170.286150      521.032553        1.112841     9     6     0     0     7
       732.235328      364.052714       99.229893    10     0     0     0     2
      1770.345449      272.923656      210.801688     1     0     0     0     2
      2641.155925      520.498169      269.072048     1     0     0     0     8
       448.082010      284.318826      421.557295    14     0     0     0     7
      1057.100786      473.700384      528.530909    30     0     0     0     4
       242.207307      486.893741      574.282013     9     6     0     0     3
       120.884568      282.777091      351.450181     8     6     0     0     6
        99.660799      515.146894      161.186177    17     4     0     0     3
       177.090806      272.938833      280.871823     7     5     0     0     2
       506.334581      267.870374      178.070474    17     0     0     0     4
       396.553300        0.701446      527.681275    11     0     0     0     6
       462.795793       23.582207      587.716414    10     0     0     0     6
      1729.557560      515.594803      420.013464     1     0     0     0     2
       225.247366      307.303017      411.758018     6     7     0     0     4
      2210.622370      301.489037      115.564533     1     0     0     0     3
       480.580797      594.160379      420.077991    12     0     0     0     2
       263.533311      478.999620      251.334322    10     3     0     0     5
       638.565813      462.581579      562.170779    16     0     0     0     4
       303.216814      218.887877      147.723559    13     3     0     0     3
      1301.361130      283.401127      461.117561    65     0     0     0     8
       817.610796      328.978520      231.828695    17     0     0     0     5
       128.003297      368.196564       55.799549    15     7     0     0     7
       442.425798      360.570870       22.326464    13     0     0     0     4
       228.046075      299.167850      344.493060    12     4     0     0     5
      1016.035825      537.591589      455.329944    26     0     0     0     6
       142.355806      144.777973      134.922291    13     6     0     0     8
      1884.977898      261.949976      200.118942     1     0     0     0     1
        16.425800      126.399457       42.143086     6     3     0     0     1
       302.893751      338.570910      548.096507     8     3     0     0     1
        42.066950      203.407965      473.469797    12     2     0     0     7
        20.555576      427.533078      400.496444     9     5     0     0     4
       343.511327      305.020807       26.033922     7     0     0     0     1
       694.192861      188.585712       36.294404    15     0     0     0     2
       843.599544      222.508101      234.105357    24     0     0     0     1
       300.963899      338.024360      437.340446     8     3     0     0     2
      2039.203343      568.311716      539.918194     1     0     0     0     6
      1263.180747      467.057847      218.244345     1     0     0     0     1
       299.253313      357.156277       89.933018    16     4     0     0     7
       696.890936      520.196540      205.512032    15     0     0     0     2
      2491.719670      190.540179      533.238479     1     0     0     0     5
       513.064796      508.251006       91.261928    13     1     0     0     8
       157.302797      107.541593      597.128275    15     3     0     0     7
      2294.505392      304.424921      468.148913     1     0     0     0     5
       201.201274      259.224886       83.390755    21    14     0     0     2
       120.155801      543.460615      267.618645    15     7     0     0     3
      3106.733606       45.214799      492.817340     1     0     0     0     6
       979.653398      207.058466      102.350873    26     0     0     0     8
       678.068315      341.471278      457.806338    15     0     0     0     1
      2563.225435      327.869007      273.901378     1     0     0     0     1
        75.650301      447.168605      337.491544     8     5     0     0     4
       210.357719      185.359497      254.469457    12     5     0     0     8
      1873.760190      486.259876       85.949883     1     0     0     0     4
        35.348959      134.708949        7.936543     6     4     0     0     4
        32.222299      403.198584      150.308582    10     4     0     0     3
       301.709220       38.550192      515.077547    14     5     0     0     5
      1271.589603      247.197427      548.379455    47     0     0     0     2
       169.755729       60.342888      250.083283     9     9     0     0     8
       131.651081      151.937393      333.487134     9     6     0     0     1
       233.501525      357.735500      580.911357    13     7     0     0     4
       473.930370      189.462244      296.487130    17     0     0     0     1
       663.640825        7.011662      344.852869    17     0     0     0     7
       106.853303      446.386585      216.033319     8     7     0     0     3
       214.065298      394.961150      268.330406    10     6     0     0     3
       647.365800      155.062939       71.113812    11     0     0     0     5
       936.901042      110.058585      513.264453    30     0     0     0     6
       197.160799      272.209078      176.610936    11     6     0     0     3
       404.005815      109.187755       18.500637    14     1     0     0     3
      1873.978948      473.380519       92.498940     1     0     0     0     7
        79.976966       31.027682       73.412505     7     6     0     0     4
      1544.709111      118.195733      520.674320     1     0     0     0     6
      1521.344016      448.517322      174.047068     1     0     0     0     5
       488.967790       37.607768      549.839989     9     0     0     0     7
        49.017801      259.068334      473.563256     9     6     0     0     8
        42.945607      139.492093      445.112271     5     1     0     0     5
       252.899293       55.905578      138.601766    20     9     0     0     2
       962.190813      423.014873       97.460902    34     0     0     0     8
      1047.666868      357.111778      221.543867    22     0     0     0     8
       201.523302      195.802355      495.651343    16     4     0     0     1
      1517.767804      514.611779      496.972989     1     0     0     0     7
       874.714563      458.073256      578.656547    27     0     0     0     5
      2280.641463      451.504065      534.895486     1     0     0     0     2
      2056.476310      548.547492       36.195748     1     0     0     0     4
      1544.616869      353.344215      389.646667     1     0     0     0     8
       148.643297      391.215459      518.557231    10     4     0     0     5
       124.568300      365.486915      328.508666     9     6     0     0     1
      1498.246646      370.203548       11.976981     1     0     0     0     1
      2504.159541      209.313499      516.750237     1     0     0     0     1
       202.378297       18.686782       80.190693    14     3     0     0     8
       339.363786      103.156964       46.798503     7     2     0     0     5
       114.738298      271.352877      229.685135    12     5     0     0     4
       131.957164      178.736550      122.071208    13     9     0     0     2
      1838.089584      596.794393      303.509681     1     0     0     0     2
      2313.408208      255.812017      317.052337     1     0     0     0     8
       443.125162       47.954033      361.523535    13     1     0     0     1
       835.484606      503.016434       90.143836    25     0     0     0     6
       247.950807      545.060778      568.400894    17     4     0     0     7
       144.282139       20.924231      128.014833    11     7     0     0     3
       603.950368      343.425054      578.306461    24     0     0     0     7
        93.849802      452.374096      341.801963    10     4     0     0     4
        60.817370      175.455269      301.028119     6     4     0     0     8
      3015.945209      391.921656      237.899020     1     0     0     0     2
       301.568315      480.398340      549.715215    12     4     0     0     6
       459.520241       73.561208      533.646998    18     0     0     0     1
        68.393301      506.946179       40.573741    15     4     0     0     6
       888.163917      470.321240      436.072324     9     0     0     0     5
       472.952780      305.044478      526.903133    12     0     0     0     2
       664.463274      393.907814      443.799160    12     0     0     0     8
        79.617729       18.991412      143.973016    15     3     0     0     7
      1512.865240      358.634406       68.797824     1     0     0     0     7
       439.840806      560.904311      192.408684    18     0     0     0     5
       694.780778      162.544283      250.965311    14     0     0     0     5
      2641.680412       51.258858      306.780888     1     0     0     0     7
      1819.409235       22.986792      500.346579     1     0     0     0     3
       757.097019      279.529965      431.935170    14     0     0     0     6
      3185.805088       30.870523      165.076675     1     0     0     0     4
       212.361406      353.573257      494.859859    10     3     0     0     7
       212.445802      267.788386      416.375841     6     6     0     0     3
       289.253313       24.502179      103.233460    12     4     0     0     1
       137.022947      477.368001      486.745530     6     5     0     0     7
      1071.966058      311.753170      272.903499    34     0     0     0     3
       507.536205      430.447456      363.043599     6     1     0     0     5
      1771.991005      578.030940      357.537928     1     0     0     0     2
       343.353288      581.224217      177.380955    16     1     0     0     8
       545.322951      389.101320      391.262288     6     0     0     0     4
       130.653299      217.253398      404.162080    15     5     0     0     6
       291.890794      136.047058      158.310015    14     5     0     0     5
       137.241222      106.364352       88.710619    12     6     0     0     5
       144.453467       95.103220      490.504890     8     6     0     0     7
        36.328300      361.837311      378.003028     9     6     0     0     7
       278.213304      331.073828       79.970891    15     0     0     0     1
       257.873292      584.946149      169.148393     7     4     0     0     4
       126.010797      466.609369      472.277756    10     7     0     0     2
       558.793097      294.389452      288.998922    10     0     0     0     6
       318.698289      198.863297      372.466134    11     1     0     0     8