ITEM: TIMESTEP
0
ITEM: NUMBER OF ATOMS
        4517
ITEM: BOX BOUNDS pp pp pp
  0.0000000E+00   5000.00000000000     
  0.0000000E+00   600.000000000000     
  0.0000000E+00   600.000000000000     
ITEM: ATOMS x y z nV nH f3 f4 orient
      1522.567625      188.231190       20.249276     1     0     0     0     6
       327.568315      466.715395      331.759266    14     3     0     0     4
       393.018297      145.101238      543.547630    16     0     0     0     5
       344.489423       46.929368      102.082936     9     3     0     0     6
       688.068426      512.418658      557.279560    12     0     0     0     8
       209.773528      275.480265      450.697185    10     4     0     0     2
      1257.259985      199.229558      370.719388    32     0     0     0     1
        54.005375      458.417522       23.843770     8     0     0     0     3
       828.323320      420.407856      391.412139    22     0     0     0     7
       220.111811      281.956967      369.176572    13     5     0     0     6
       314.137697      267.500459      121.862154     8     4     0     0     5
        40.906495      517.915490      470.059041     8     1     0     0     8
       424.285814       88.618018      355.161897     7     0     0     0     4
       243.196029      267.078395       41.616132    13     6     0     0     3
      2392.276572      264.634139      225.031393     1     0     0     0     6
       162.255800      504.811432      320.317998    24     8     0     0     4
       221.460802       21.470952      539.190023     8     6     0     0     2
        56.006300      188.995335      344.747345    12     3     0     0     8
       222.047452      408.916412      122.724565    11     1     0     0     6
      1256.856118      178.394380      331.851756    48     0     0     0     2
       371.704100      383.666673       68.773056    11     2     0     0     8
       157.527803      129.992600      130.439948    12     4     0     0     1
       332.955797      528.969827      450.195627    18     6     0     0     4
       533.363298      566.786130      144.633176    20     0     0     0     3
       475.767389      400.814079      311.485090    13     1     0     0     6
       213.745025       58.380618      448.857395    13     5     0     0     3
       457.745579      236.371691      581.292633    14     1     0     0     8
      1588.852941      556.263767      429.567537     1     0     0     0     4
       208.856294       14.362298      599.731638    15     1     0     0     3
        57.440301       94.432121      419.885567    13     4     0     0     6
       206.085277      152.704068      532.383447    11     4     0     0     3
       627.436278      232.817458      566.287774    13     0     0     0     1
       322.795793      308.876686      506.708321    16     2     0     0     3
       236.297530       62.937013      544.429293     9     5     0     0     2
       167.625795      113.584129      227.781909    14     4     0     0     1
       388.660174      319.769590      578.591750    17     4     0     0     6
       176.510805      489.124431      395.118733    14     2     0     0     3
       963.466874      191.979576      373.147104    24     0     0     0     5
       452.274797      242.371521      153.813992    14     1     0     0     5
      2507.589505      336.971587      230.472266     1     0     0     0     5
       112.031297      180.556648      191.280097    11     3     0     0     1
      2179.406360      506.313316      510.148091     1     0     0     0     7
        77.742298      238.743795       10.695556     7     1     0     0     7
      1898.409704       46.469174      366.955319     1     0     0     0     1
       923.190730      204.644371      297.995274    30     0     0     0     2
       112.575720      384.238475       45.189852     8     3     0     0     7
        41.756300      176.057392       47.442923     6     1     0     0     5
      2123.152866      303.492551      261.209428     1     0     0     0     4
       242.685792      566.573789      166.319943    12     3     0     0     6
       583.873308      212.923858      236.944731    18     0     0     0     3
       156.822694      419.473836      178.617018    10     3     0     0     2
       455.513604      417.423064       25.675145    13     2     0     0     2
       343.828012      598.455043      566.753981     8     2     0     0     7
       533.081883      218.101032      541.543980    11     0     0     0     8
        93.513572      150.617876      184.033315    17     3     0     0     4
       299.309159       80.090109      100.798785    11     1     0     0     4
      2258.554526      394.875278      418.673571     1     0     0     0     3
       770.005815       59.902422      118.971197    26     0     0     0     3
      2123.832854      367.545112      174.618738     1     0     0     0     7
        36.328300      361.837311      378.003028     9     2     0     0     3
        52.275456      379.785530      512.529314     5     1     0     0     3
       238.060651      406.348517      234.488071     6     4     0     0     4
       245.792228      414.873945      308.008086    12     2     0     0     2
        42.945607      139.492093      445.112271     5     1     0     0     4
       183.988058       12.730639      247.870214    15     2     0     0     6
       116.865800      404.147784      290.750112     9     4     0     0     5
        41.702299       16.893936      126.913884     8     3     0     0     2
      2095.322932       23.274691      395.203759     1     0     0     0     1
       314.925656      179.423108      104.427855    11     6     0     0     2
       100.757075      522.268424      586.650443    10     2     0     0     2
       128.003297      368.196564       55.799549    15     0     0     0     6
      2204.546705      112.103762      405.800298     1     0     0     0     8
       446.493303      177.318720      589.449369    11     1     0     0     5
      1285.362211      556.023795      551.073305    53     0     0     0     7
       243.873151      449.319815      189.009837    15     2     0     0     1
      2993.632780      176.404611      310.544276     1     0     0     0     7
       224.853495      333.837954      158.916167    10     4     0     0     4
        62.030801      168.822682       81.064194    11     4     0     0     3
      1020.093228       72.655108      239.917228    33     0     0     0     3
      2277.493635      242.056565      238.837974     1     0     0     0     7
        66.135008      431.480392      289.560982     9     1     0     0     3
       141.573305      130.371355      544.211341    12     4     0     0     7
       494.623308      563.816155      525.580656    16     1     0     0     1
       296.144304      365.477618       23.748080    11     3     0     0     6
       131.043802      136.604089       53.605392    14     4     0     0     1
       126.010797      466.609369      472.277756    10     4     0     0     4
      1991.809500      550.348825       25.336482     1     0     0     0     8
      2372.651597      235.357306      398.017904     1     0     0     0     2
       346.508231      589.874553      267.905274    17     3     0     0     4
       767.738629      314.852997      137.713158    15     0     0     0     1
       398.923043      295.523628       41.542076    12     1     0     0     3
       136.053316       97.395588      375.437288    11     4     0     0     7
        62.318243      463.514496      277.348575    13     1     0     0     5
       423.338304      442.078324      377.202316    10     2     0     0     5
      2416.848425      479.864509      500.024490     1     0     0     0     5
       131.648302      571.393513      125.657065    21     8     0     0     4
      2318.556401      256.536363       50.862454     1     0     0     0     8
       418.590806      186.185450      374.813817    19     1     0     0     8
        46.905801      188.339508      418.969198    15     1     0     0     2
       623.693315      170.614640      416.929554    21     0     0     0     3
       113.313303      334.564204      590.620535    18     3     0     0     4
       486.815813      145.788945      386.237063    14     2     0     0     1
      2007.705890      296.571198      443.834353     1     0     0     0     5
       196.228303       49.031612      330.013415     8     5     0     0     8
       697.412881      109.219266        6.539289    27     0     0     0     6
       442.155809      599.576849      326.028963    13     2     0     0     2
       297.845647      473.483404      292.498344    10     4     0     0     4
       177.840806      420.882395      274.227063    15     1     0     0     3
       228.828798      221.528806       49.771307     8     6     0     0     1
       992.183477       64.567238       17.766194    26     0     0     0     5
       631.570817      498.681567      232.932067    14     0     0     0     4
       131.574800      185.336200      403.899145     9     6     0     0     5
       278.628801      167.768817      522.634634     9     4     0     0     8
      2367.723082      352.722522      168.254584     1     0     0     0     3
       219.686510      177.298344      306.156215    11     6     0     0     4
       622.360796       49.314624      403.982238    11     0     0     0     2
       762.315482      262.265005       20.089796    17     0     0     0     4
      2636.505790      244.204845      478.262227     1     0     0     0     1
      2062.387164      186.083323      498.685840     1     0     0     0     5
       347.840612      562.103421      449.265257    10     3     0     0     7
       206.825969      411.832498      520.934478    13     7     0     0     8
       313.664293      358.962122      178.805958    12     0     0     0     7
       712.070817      192.720907      238.785927    10     0     0     0     1
       101.093301      412.678828      224.966601    12     4     0     0     3
      1311.568225      210.717653      352.364994     1     0     0     0     5
       230.328294      463.971170      318.553308    15     2     0     0     4
      2417.136936      563.017580       90.138306     1     0     0     0     4
      1685.852233      329.586696       83.636662     1     0     0     0     2
      1641.880427      266.803280      402.978707     1     0     0     0     4
       158.668248      223.615715      396.333333     9     4     0     0     1
       326.132908        8.985371       33.382937    15     1     0     0     7
       666.785783      594.280510      545.268719    21     0     0     0     3
       127.670298      323.157913       75.054151    11     5     0     0     7
       120.060800      128.649754      500.875011    14     4     0     0     8
       381.750952      585.009318      549.024543    12     1     0     0     5
       406.563345      199.008449      587.789342     7     3     0     0     8
      1435.619028      468.516459       35.185519    65     0     0     0     4
      2053.093611      255.086689      592.236070     1     0     0     0     2
      2772.964390      129.042437      415.350118     1     0     0     0     8
        93.261429      483.997746      344.152426    10     4     0     0     4
      1948.978264      288.037419      464.931972     1     0     0     0     2
        58.073301      462.338209      174.254390     6     2     0     0     2
       485.879345      530.880760       84.001938    14     1     0     0     7
       411.448866      435.614828       49.305248    12     1     0     0     2
      1986.629314      293.248799      448.808802     1     0     0     0     7
       224.985952       11.959594      322.997011     8     6     0     0     2
       284.765875      383.099386      246.900871    16     2     0     0     4
       404.005815      109.187755       18.500637    14     0     0     0     5
       196.717933      221.652320      571.538498    10     4     0     0     2
       222.633898      161.502793      362.929235    14     5     0     0     4
       179.628297      107.446701      408.945188     9     4     0     0     4
       130.495876      125.439315      591.611305    12     3     0     0     4
       184.014254      262.570621      424.668906     6     4     0     0     5
       625.260703      383.467130       10.055220    16     0     0     0     8
      1441.903667      540.603251      216.832253     1     0     0     0     1
       163.813873       97.021271      511.005550    12     4     0     0     6
       902.755699      177.139776      555.390510    24     0     0     0     4
       790.148825      469.641910      143.664964    23     0     0     0     6
       114.029298       51.267046       33.815086     9     0     0     0     3
        75.233450      576.583479      438.565175    11     5     0     0     8
        58.291927      465.770453      423.429158    15     0     0     0     8
       262.290803      225.251709      474.911375    11     5     0     0     1
       575.353288      147.794496       83.643438    22     0     0     0     2
      1955.645580      295.132892       15.988384     1     0     0     0     1
       271.715906      434.314442       54.940735    14     4     0     0     7
       114.100004      221.103179      514.714383     9     6     0     0     6
       153.108726      273.742507       88.885255    13     5     0     0     5
        59.112273      245.165665      310.361295     6     4     0     0     1
       752.600786       10.839189       50.870507    27     0     0     0     4
       447.294024       64.748702      207.293249     8     2     0     0     4
       395.730791      101.115902      592.530668    14     4     0     0     8
        37.278875      396.403054      352.063208    12     1     0     0     5
       840.715351      391.382639      458.535294    16     0     0     0     5
        32.241783       85.891789      585.854606     6     2     0     0     7
        32.123300      490.939839      525.267994     9     3     0     0     4
      1722.284823       77.204304      283.370013     1     0     0     0     4
      2174.630287      134.921830      105.981158     1     0     0     0     2
       116.485803      465.750617      303.242490    12     2     0     0     2
       329.586170       35.361161      417.971123    15     2     0     0     7
        39.568972       88.287227      506.854216     6     2     0     0     2
       257.508302      460.725194      264.776496    10     4     0     0     1
       381.503313      385.759204      443.634585    22     5     0     0     7
       754.076748      393.662295      103.729001    19     0     0     0     7
       113.385838      483.557710      586.005597    11     2     0     0     4
      1549.161647      376.401657      223.553433     1     0     0     0     8
      2090.464694      555.773731       80.200786     1     0     0     0     6
       259.638604      491.847709        1.099917    15     2     0     0     6
      1615.214266      110.466124      563.407260     1     0     0     0     3
       899.605846      446.107432      228.678004    18     0     0     0     1
       305.975786      368.613296      590.199703    14     5     0     0     8
        81.938303      493.663628        2.221559    10     4     0     0     6
        30.878299      414.727057       91.919915    10     1     0     0     5
       358.328225      546.854613      467.473212    10     2     0     0     1
       317.963304      343.406562      540.429520     9     4     0     0     7
       160.628829       27.185897      510.627896    14     5     0     0     4
       490.911356      387.007236      560.080859    20     2     0     0     6
      2431.998072      287.024400       21.456165     1     0     0     0     4
      2173.850703      308.584042      189.532574     1     0     0     0     1
      2099.451109      356.230985      236.027337     1     0     0     0     8
        72.591798      293.743792      295.529162     8     3     0     0     7
      2981.724146      160.757531      421.537768     1     0     0     0     7
       455.693315      126.124736      171.968207    12     0     0     0     7
      1256.595138      289.762229      426.869164     1     0     0     0     3
       374.925798      334.212475      156.252595    19     1     0     0     7
      1914.111630       51.050760       64.429597     1     0     0     0     2
        36.419962      408.036409       49.280256     7     1     0     0     8
       154.238298      344.806358       77.683160     6     3     0     0     8
       114.348802      516.736389      104.715247    16     3     0     0     5
       147.530305      546.103904       58.651773    10     4     0     0     1
        89.628297      136.607828      326.467195    17     4     0     0     5
       109.745798      116.882658      558.743389    11     6     0     0     8
      1660.237882      172.214084       26.754056     1     0     0     0     2
       439.720811      491.510330      575.917513    17     0     0     0     1
       424.668291      119.716857      308.936709    18     1     0     0     1
       175.974731      110.048292      436.212857     8     3     0     0     7
        67.707114      125.967885      569.576900     5     2     0     0     2
       280.659807      309.344015       13.690967    10     4     0     0     6
       232.958002       11.850839      195.572033    14     4     0     0     2
       116.259798      476.837436      246.642248     8     2     0     0     2
        62.349521      358.135621      483.144390     8     5     0     0     5
       358.258479      501.716339      349.242820    10     3     0     0     4
       210.144172      416.229149      185.696234    15     0     0     0     6
       227.910657      251.113828      261.847897    12     5     0     0     8
       618.990800      489.756554      583.311859     6     3     0     0     7
       178.670879      419.693138       60.199945     7     4     0     0     6
      1916.212854      158.007877       57.119722     1     0     0     0     5
      2122.619084      511.883063      336.149632     1     0     0     0     7
      1987.345072      106.699822       49.147017     1     0     0     0     4
      2394.092374      445.324415      147.095930     1     0     0     0     1
       403.280809       69.090994      388.884297    23     1     0     0     6
       120.675798      279.818354       32.839448    12     3     0     0     5
       201.853303      499.883746      261.560881     8     5     0     0     4
       479.003759      468.130110      275.691211     8     0     0     0     8
      1975.060089      189.282111      272.857080     1     0     0     0     1
       200.596924      456.761942      420.862161    16     3     0     0     5
      2293.755498      163.134959      422.961241     1     0     0     0     4
       367.348563      441.542556      147.411885    16     3     0     0     8
        93.099723      229.468428      241.701521    14     3     0     0     2
       663.170671      194.425583      114.828057    22     0     0     0     4
      1740.276528      265.010782      196.558515     1     0     0     0     1
      2625.330176      542.654217      265.906898     1     0     0     0     8
       233.790279       45.763829      429.796807    13     5     0     0     2
      1057.100786      473.700384      528.530909    30     0     0     0     4
       278.213304      331.073828       79.970891    15     1     0     0     1
       217.959050      501.214909      148.114032    13     7     0     0     1
        79.634302      521.996073      178.487138    15     3     0     0     5
       492.791436      220.922031      103.493073    16     0     0     0     1
       300.630815      400.594390      266.311022    11     2     0     0     3
       154.910295       34.682271       67.117321    12     3     0     0     7
       372.237810      572.411975        1.016449     8     0     0     0     5
      1734.305285      520.342527      434.256637     1     0     0     0     5
       137.973299      473.564098      348.559695    13     4     0     0     1
      2218.535244      306.236761      126.642557     1     0     0     0     8
        80.320802      236.080546      135.119242    10     4     0     0     8
       347.715806      170.455955      417.894459    15     1     0     0     3
       643.618076      352.247930      528.130375    19     1     0     0     7
       399.926916      291.523927      237.421119    12     1     0     0     1
      1301.361130      283.401127      461.117561    65     0     0     0     8
       817.610796      328.978520      231.828695    17     0     0     0     5
       108.682117      250.716504      514.278759     9     5     0     0     7
        36.653301      394.886068      332.964735    13     3     0     0     2
        25.160800      424.457893      428.378949     6     1     0     0     6
      1016.035825      537.591589      455.329944    26     0     0     0     6
        69.833299      299.504777      574.331978    11     5     0     0     7
      1899.221072      298.349197      227.022714     1     0     0     0     7
       508.015008      398.542729      167.058322    18     3     0     0     4
       225.247366      307.303017      411.758018     6     4     0     0     7
       302.920793      525.706701       43.803185    15     0     0     0     4
       913.427047      216.788141      575.379464    12     1     0     0     2
       211.625795      539.943033       75.227491    11     2     0     0     8
       694.192861      188.585712       36.294404    15     0     0     0     2
       843.599544      222.508101      234.105357    24     0     0     0     1
       120.051727      395.007106      147.777534    14     3     0     0     4
      2026.542745      558.816268      543.083344     1     0     0     0     8
      1241.024699      460.727548      205.583746     1     0     0     0     4
       447.380815      337.153283      365.460421    16     2     0     0     3
       616.920793       56.837183      359.009438    17     0     0     0     7
      2491.719670      190.540179      523.743030     1     0     0     0     6
       136.356501       82.030844      301.745921     9     5     0     0     5
       277.273302      268.404428      126.253575     8     4     0     0     6
      2285.009943      332.911268      442.827716     1     0     0     0     4
       151.586305      510.153504      155.949391    16     1     0     0     5
       184.595293      556.955643      141.271661    11     2     0     0     4
      3130.472228       53.127673      475.409017     1     0     0     0     2
       979.653398      207.058466      102.350873    26     0     0     0     8
       678.068315      341.471278      457.806338    15     0     0     0     1
      2583.798908      338.947030      284.979402     1     0     0     0     8
       174.248222      311.561119      291.601302    12     4     0     0     5
       571.748308      173.833832      476.259917    13     2     0     0     6
      1850.021568      484.677301       74.871859     1     0     0     0     7
       506.155809      315.256670      118.893404    12     2     0     0     4
       509.748308      467.058820      338.158034    16     1     0     0     1
       382.123676      168.401736      379.137606    21     5     0     0     6
      1271.589603      247.197427      548.379455    47     0     0     0     2
       443.471179      332.532427      286.764962    16     1     0     0     7
        35.432300      272.011467      553.718128     8     2     0     0     8
       302.558305      107.290362       50.603789    11     5     0     0     5
       407.271948      520.531717      213.354861    17     3     0     0     5
       663.640825        7.011662      344.852869    17     0     0     0     7
       272.216239      351.278791      153.218282    12     3     0     0     4
       237.108293      558.136431      115.184304     9     5     0     0     8
       647.365800      155.062939       71.113812    11     0     0     0     5
       936.901042      110.058585      513.264453    30     0     0     0     6
       531.028276      594.382082      368.220364    17     1     0     0     7
       166.523372      175.657745      314.969497    15     2     0     0     8
      1891.387271      459.137346      103.576964     1     0     0     0     3
       625.266374      228.645235       30.663495    14     1     0     0     4
      1541.543962      134.021481      520.674320     1     0     0     0     1
      1526.091740      450.099897      169.299343     1     0     0     0     1
       488.967790       37.607768      549.839989     9     0     0     0     6
       236.338672      288.676648      153.818015     9     5     0     0     1
        37.768301      582.287748      183.450119     9     3     0     0     6
        44.785799      260.962472      265.476717    10     0     0     0     7
       962.190813      423.014873       97.460902    34     0     0     0     8
      1047.666868      357.111778      221.543867    22     0     0     0     8
       171.336793       34.018815      548.973083    13     5     0     0     1
      1503.524630      519.359503      482.729816     1     0     0     0     7
       874.714563      458.073256      578.656547    27     0     0     0     5
      2280.641463      454.669215      538.060636     1     0     0     0     4
      2029.572538      515.313421       21.952574     1     0     0     0     8
      1549.364593      370.752538      372.238344     1     0     0     0     8
        56.522508      408.482310      560.540421    12     3     0     0     4
        90.744633      350.486897      281.919792    11     5     0     0     4
      1476.090599      382.864147       30.967879     1     0     0     0     3
      2467.760320      195.070326      540.488859     1     0     0     0     4
       742.278276      248.083258      325.126777    17     1     0     0     1
       168.281297      313.464065      401.210566    18     7     0     0     6
       210.357719      185.359497      254.469457    12     4     0     0     7
       281.894199       82.604537       23.702067    11     7     0     0     5
      1844.419884      599.959543      309.839980     1     0     0     0     7
      2294.417310      239.986269      342.373534     1     0     0     0     6
       473.960888      317.822731      387.241894     8     1     0     0     7
       835.484606      503.016434       90.143836    25     0     0     0     6
       251.546646      118.065921      437.165526     9     2     0     0     7
       169.192519      297.495655      534.345305     8     4     0     0     8
       599.350730      395.135501      566.805756    17     0     0     0     8
       375.848001      542.836914      260.029671    12     1     0     0     1
       563.351345      105.542315      591.276951    10     1     0     0     4
      3004.867185      393.504231      258.472493     1     0     0     0     1
       559.982728      224.181377      393.960795    10     1     0     0     8
       335.328294      365.815360       92.266095    11     2     0     0     4
       202.521423      247.760248      454.946387     8     6     0     0     5
       888.163917      470.321240      436.072324     9     0     0     0     5
       243.227044      104.728362      194.996628    10     4     0     0     2
       657.653276      319.346729      489.556569    20     0     0     0     2
       230.560003      556.527166      313.136806     9     4     0     0     8
      1500.204641      336.478359       56.137225     1     0     0     0     1
        73.540803      325.176283      568.009482    10     3     0     0     2
       694.780778      162.544283      250.965311    14     0     0     0     5
      2636.932687       49.676283      308.363463     1     0     0     0     1
      1827.322109       21.404218      498.764005     1     0     0     0     4
       757.097019      279.529965      431.935170    14     0     0     0     6
      3177.892213       35.618248      182.484998     1     0     0     0     3
       477.012681      433.065298      452.529292     9     2     0     0     6
       102.145097      189.706187      459.899408    12     3     0     0     8
       346.778306      192.478400      560.408475    18     2     0     0     4
       132.605798       45.673140      362.870352    15     1     0     0     6
      1071.966058      311.753170      272.903499    34     0     0     0     3
       366.303300      457.356594      137.386592    18     5     0     0     5
      1771.991005      584.361240      332.216731     1     0     0     0     5
       397.095811      296.145773      421.996719     8     0     0     0     8
       355.780992      321.871685      441.890711    16     1     0     0     6
       215.170793       44.986740      589.967091    10     2     0     0     8
       495.735796       74.762288      307.342214    16     0     0     0     1
       150.440797      595.647791      170.146642     6     3     0     0     5
       859.510820       25.954302       24.583610    10     1     0     0     1
        35.738225      511.287006      325.447524     8     3     0     0     6
       524.928300      115.051351      434.865544     8     0     0     0     8
       169.462300      238.835868      519.951777     7     4     0     0     3
       272.488893       55.077964       57.263460     8     4     0     0     7
       293.913230      307.601659       45.714629    14     4     0     0     6
       338.563551      317.424027      227.543733    12     5     0     0     5