ITEM: TIMESTEP
0
ITEM: NUMBER OF ATOMS
        4518
ITEM: BOX BOUNDS pp pp pp
  0.0000000E+00   5000.00000000000     
  0.0000000E+00   600.000000000000     
  0.0000000E+00   600.000000000000     
ITEM: ATOMS x y z nV nH f3 f4 orient
      1524.909115      221.291750      574.432592     1     0     0     0     6
       339.363786      103.156964       46.798503     7     3     0     0     3
       374.925798      334.212475      156.252595    19     2     0     0     5
      1020.093228       72.655108      239.917228    33     1     0     0     7
       144.738298      204.458353      583.692203    15     0     0     0     4
       135.681191      537.549094      346.012133     7     1     0     0     7
      1348.925812      292.972805      200.072917     1     0     0     0     7
       628.719102      111.564799      412.412134    14     0     0     0     6
       794.630815      366.889229      376.234826    19     0     0     0     4
       376.885789      174.534815      271.958701     9     2     0     0     7
        82.903228      457.820676      105.057368     9     1     0     0     5
       102.527299      326.132782      581.028395    13     1     0     0     7
       180.666795      429.919385      111.559118     8     5     0     0     4
       388.466000      379.680822      285.899142    11     3     0     0     4
      2419.180344      278.877312      258.265465     1     0     0     0     4
       424.018297      443.572880      391.831938    18     6     0     0     4
       557.500810      534.815971        1.176978    10     4     0     0     8
       374.376731      135.215566       83.157690    19     4     0     0     5
       339.202591      127.131693      490.813147    11     1     0     0     1
       746.594762      450.732094       75.982743    10     1     0     0     6
       124.170801      250.474890      280.522636    13     2     0     0     4
      1004.575174      135.597297        2.599804    27     1     0     0     8
       439.934407      180.496107       62.848903    18     3     0     0     5
       695.388372      542.563556      237.486452    24     0     0     0     3
        95.793191      215.444752       47.543222     9     1     0     0     8
        53.268301      422.554781      486.744966     8     0     0     0     4
        57.108066      298.007031      102.924251     6     1     0     0     2
      1582.522642      546.768318      435.897837     1     0     0     0     2
       394.159189      174.576056      321.024759    10     2     0     0     4
       106.705797      575.395264      125.743605    15     0     0     0     6
       164.795793        5.865545      346.463486    11     2     0     0     5
       249.509772      531.017846      200.080027    13     1     0     0     3
        49.058301      348.230167      287.119804     9     0     0     0     7
       150.168306      173.939680      498.806786    19     3     0     0     7
       194.783718       91.048766      443.069648     6     2     0     0     3
       111.880792       10.038395      345.731950    12     3     0     0     5
       343.828012      598.455043      566.753981     8     2     0     0     5
       775.479672      100.905061      152.413793    11     0     0     0     6
       355.193315       52.075601      564.840595    10     2     0     0     5
      2475.938008      330.641288      205.151069     1     0     0     0     5
       400.602434      261.082092      161.075958     9     4     0     0     1
      2182.571510      512.643615      503.817792     1     0     0     0     6
       181.598596      498.122369       45.497513     8     4     0     0     6
      1904.740003       62.294922      357.459870     1     0     0     0     2
       908.308305      247.466989      250.540404    19     0     0     0     5
       611.905778      203.078804      313.258332    22     6     0     0     8
       301.733379      193.982186      223.807671    14     2     0     0     8
      2099.414244      320.900874      262.792003     1     0     0     0     5
       104.295801      352.669694      373.332559    12     1     0     0     4
        39.568972       88.287227      506.854216     6     1     0     0     1
       114.228303       32.668420      538.572923    13     1     0     0     4
       412.555803       29.268231      336.136864    22     0     0     0     4
        31.257801      235.251617      405.489462    11     0     0     0     4
       500.756011       86.602784      189.905360    11     2     0     0     1
       382.745286      112.442414      554.969375    10     3     0     0     1
       543.690813       21.061870      279.671268    19     2     0     0     7
      2260.137101      390.127554      432.916744     1     0     0     0     4
       773.030214      230.812627      417.135213    25     0     0     0     4
      2131.745728      321.650442      173.036163     1     0     0     0     2
        63.480798       38.296673       28.083905     9     1     0     0     5
       109.273302      140.911685      141.714508    10     5     0     0     3
       384.033221      266.667082      274.271551    15     0     0     0     1
        77.195212      377.105348      369.316439    15     0     0     0     5
       134.660799      181.728281      144.263936    14     1     0     0     6
        54.386301      184.713319      292.275258     8     3     0     0     7
       226.613062       52.813354      253.611944     8     1     0     0     7
       509.748308      467.058820      338.158034    16     1     0     0     4
      2112.731255       31.187566      425.272681     1     0     0     0     3
       292.503313      480.208179      594.201899     6     3     0     0     8
       372.243303       64.462984      404.527678    10     2     0     0     4
       189.564781      502.694979      554.990157     7     0     0     0     4
      2212.459579       97.860588      378.896526     1     0     0     0     5
        42.248300      298.757049       25.078474     9     2     0     0     4
      1503.443091      500.299946      286.408282     1     0     0     0     7
       174.510805       80.982328      199.654334    14     2     0     0     2
      3015.788827      185.900060      329.535173     1     0     0     0     7
       576.520830      354.139336      445.009059    13     3     0     0     3
       496.368303       74.397309        9.049490     9     2     0     0     7
      1125.495297       65.478917      110.256668    56     0     0     0     4
      2124.975720      128.836398      393.313273     1     0     0     0     7
        62.349521      358.135621      483.144390     8     1     0     0     6
       442.155809      599.576849      326.028963    13     2     0     0     5
       300.573808      577.814542      427.646620     6     3     0     0     2
       102.214248      331.883104       23.841608    18     3     0     0     1
        79.075799      398.126314      188.916273    16     2     0     0     2
       236.560792       95.516614      409.790343    25     3     0     0     2
      1983.896626      539.270802       45.909955     1     0     0     0     5
      2371.069022      252.765629      421.756526     1     0     0     0     6
       114.949872      169.413075      510.046688     7     0     0     0     8
       358.250810      356.556230      265.373095    12     4     0     0     4
       198.131696      242.741959      590.149668    14     2     0     0     7
       410.280809       54.883070      237.671071    14     0     0     0     8
       327.411096       15.551453       10.663687     9     5     0     0     8
       880.733293      483.279096      203.581928    34     0     0     0     6
      2180.432634      522.780759      462.187417     1     0     0     0     4
       360.431013      262.105193      180.020505    13     6     0     0     6
       115.107946        3.003020      384.127687    19     1     0     0     4
        42.066950      203.407965      473.469797    12     3     0     0     1
       143.510805      464.163423      241.795918    13     1     0     0     3
        31.243301       22.594501      530.644025     6     2     0     0     2
       541.348172       30.157208      446.901894    10     0     0     0     8
       322.118217      450.266847       36.885852    17     5     0     0     2
      2012.453615      307.649222      439.086628     1     0     0     0     5
       182.644457      222.220441      497.529637     8     1     0     0     3
       401.890794      456.944476       62.684629     9     0     0     0     8
       424.285814       88.618018      355.161897     7     1     0     0     3
       282.881435      350.043418      516.329442    13     3     0     0     2
       159.738298      480.215527      175.302517     9     3     0     0     4
       216.359044       36.666980      532.284750     7     2     0     0     6
      1120.522104      592.281151      392.703352    30     0     0     0     1
       174.770296      221.945025      231.770615    11     4     0     0     4
       337.362265      501.676432       84.928335    17     3     0     0     6
       116.883302      286.342753      448.766048     8     1     0     0     6
      2353.479909      382.791443      160.341710     1     0     0     0     4
       215.081275       90.112212      162.908282    17     3     0     0     3
        19.762208      535.603495      553.345728     6     0     0     0     7
       897.274263      338.923559      413.880095    24     1     0     0     6
      2631.758065      207.805624      476.679652     1     0     0     0     7
      2075.047763      170.257575      473.364643     1     0     0     0     4
       188.288598      186.092867      365.737902    10     2     0     0     2
       232.958002       11.850839      195.572033    14     4     0     0     7
        41.756300      176.057392       47.442923     6     0     0     0     7
       481.938310       71.410196      185.692869    10     3     0     0     7
       421.330813      174.117734      517.022818     8     1     0     0     7
      1275.169005      228.125976      338.121820     1     0     0     0     1
       113.120302       93.658175      530.321631     6     4     0     0     4
      2432.962684      566.182729      121.789802     1     0     0     0     6
      1670.026485      316.926097       67.810913     1     0     0     0     7
      1645.045577      282.629028      393.483258     1     0     0     0     7
       357.408614      134.191760       58.597235     8     2     0     0     1
       257.439781      499.540458      523.612330    18     5     0     0     8
       150.440797      595.647791      170.146642     6     4     0     0     6
       120.884568      282.777091      351.450181     8     1     0     0     7
       170.286150      521.032553        1.112841     9     3     0     0     4
       336.338304      273.751104        5.560883     8     8     0     0     3
       393.938310      219.278817      568.235614    15     0     0     0     1
      1435.619028      468.516459       35.185519    65     0     0     0     4
      2070.501934      199.696570        9.644393     1     0     0     0     3
      2761.886366      159.111359      416.932693     1     0     0     0     5
       398.555803      582.443966      586.835766    14     1     0     0     8
      1945.813114      278.541970      499.748618     1     0     0     0     8
       181.211569      552.855350      581.935393     5     0     0     0     7
       340.373308      311.938442      254.995977    11     2     0     0     5
       457.241222      496.345019      250.729514    14     3     0     0     7
      1945.482369      274.257901      470.964849     1     0     0     0     8
       235.478671      477.982872      129.429916     8     2     0     0     6
       492.791436      220.922031      103.493073    16     2     0     0     7
       321.508199       66.734111      322.928405    18     5     0     0     4
      1865.191763      568.098468      447.637727     1     0     0     0     4
       657.653276      319.346729      489.556569    20     0     0     0     3
       297.845647      473.483404      292.498344    10     2     0     0     8
       373.087597      525.111609      492.477609     7     1     0     0     5
        78.495798       63.589725      369.106173    16     2     0     0     6
       126.922569      258.494866      319.185844     9     1     0     0     3
      1445.068816      537.438101      232.658001     1     0     0     0     2
       291.813798      407.140020      546.223780    12     1     0     0     7
       902.755699      177.139776      555.390510    24     0     0     0     4
       113.051301      291.120486      145.762287     6     2     0     0     4
       623.442861      433.404232      412.795897     9     1     0     0     6
       149.870302       40.162520      235.616741    11     4     0     0     7
       220.796297      276.263804       15.452911    18     4     0     0     5
       274.953813      239.055554       52.050098    14     3     0     0     6
       283.818437      159.847586       10.496915    10     2     0     0     5
      1954.063005      280.889719       30.231558     1     0     0     0     5
        79.205797       31.284742       37.607952    10     4     0     0     3
        82.564567      312.713947       67.645567     9     0     0     0     8
       525.441789       10.313421       91.101260    12     1     0     0     6
       473.288286      337.390848      510.428508    21     1     0     0     6
       683.175798      176.221432      275.375681    16     0     0     0     7
       279.871806      230.682393      241.897474     9     4     0     0     8
       419.056976      362.066393       31.472786    14     3     0     0     1
       206.302102      335.479227      105.412098    15     0     0     0     8
       798.449179      268.810835      493.249407    18     0     0     0     3
       290.192495      385.520672      318.293074    19     3     0     0     1
       545.775890      596.089609      460.483511    10     2     0     0     4
      1741.275721       89.864902      302.360911     1     0     0     0     6
      2174.630287      115.930932       80.659961     1     0     0     0     8
       714.362916      411.002189      196.547744    12     1     0     0     6
       292.325792      141.570783      511.223348    12     2     0     0     2
       266.675798      202.978083      298.522844     9     5     0     0     2
       290.845811      366.502579       16.339261    10     2     0     0     6
        55.385875      585.151665       86.751333    16     2     0     0     4
       169.400842      247.459265      360.761750    10     4     0     0     5
       513.873308      299.626494      549.680350    15     1     0     0     7
      1525.423024      374.819082      193.484511     1     0     0     0     5
      2093.629844      555.773731       64.375038     1     0     0     0     2
       754.076748      393.662295      103.729001    19     1     0     0     1
      1623.127140       77.232053      552.329236     1     0     0     0     5
       909.783281      505.100059      239.542511    19     0     0     0     8
       103.655110      499.146733      500.577295     7     1     0     0     6
       174.613298      147.673373       24.549928    11     5     0     0     3
       141.530794      587.047754      307.058639    11     3     0     0     2
       255.610796      163.575282      180.455309    19     4     0     0     7
       613.561734       98.311153      399.649910    16     1     0     0     4
       589.214580       32.652439      566.590018    14     1     0     0     7
       130.398798      348.533084       61.210363     9     2     0     0     6
      2488.022446      259.042140       95.938690     1     0     0     0     8
      2200.754475      341.818113      229.096944     1     0     0     0     6
      2123.189731      414.786253      240.775061     1     0     0     0     2
       578.080827      568.297341      564.770520    15     0     0     0     2
      3029.201391      157.592382      402.546870     1     0     0     0     8
       841.845781       63.664045      220.894769    26     0     0     0     7
      1272.420886      289.762229      430.034314     1     0     0     0     4
       316.429233      152.115966      554.496994    13     1     0     0     6
      1910.946481       22.564413       73.925046     1     0     0     0     7
        35.055875      275.789281      268.281158     7     0     0     0     2
        75.155801      205.675061      366.316348    13     1     0     0     5
       637.133373        3.527901      218.497428    15     1     0     0     8
       112.575729      384.544263      566.200719    13     6     0     0     7
       520.257442      255.304695      519.866517    12     2     0     0     1
       806.889091      114.052819      238.163512    16     0     0     0     8
      1687.141654      157.970911       56.822977     1     0     0     0     2
        52.893301      526.183025      586.465173    20     3     0     0     4
       598.841029      373.466777      407.034440     9     1     0     0     5
        63.489966      218.020995      471.818385     9     0     0     0     6
       241.163301       45.280623      596.280371    11     5     0     0     5
        68.027299      447.441231       97.866427     9     3     0     0     6
       374.311991      289.578063      515.907823    15     1     0     0     6
        74.174373      316.419530       64.817447    12     1     0     0     5
       137.022947      477.368001      486.745530     6     0     0     0     8
       410.950792      417.198569      139.894612    23     4     0     0     3
       497.773302       86.582172      339.116846    11     0     0     0     5
       312.115654       46.510248       22.234495    12     1     0     0     2
        71.435358      327.223714      149.072719     9     3     0     0     3
       661.266528      329.794545       76.944857    23     0     0     0     6
      1928.873453      135.851830       79.275769     1     0     0     0     7
      2119.453935      486.561866      355.140530     1     0     0     0     1
      1946.198127       71.883176       58.642466     1     0     0     0     3
      2376.684051      453.237289      151.843654     1     0     0     0     5
       243.227044      104.728362      194.996628    10     3     0     0     7
       159.446170      528.673678      421.751004     9     4     0     0     2
       356.216110       10.145570      135.094201    13     1     0     0     3
       421.608640      480.015097      196.071483    13     5     0     0     3
      1956.069192      192.447261      282.352529     1     0     0     0     1
       140.204710      269.981157      247.628230     9     3     0     0     3
      2298.503223      183.708431      411.883217     1     0     0     0     7
       476.630049       88.467664      356.171226     7     0     0     0     3
       371.704100      383.666673       68.773056    11     2     0     0     5
       119.615800       92.810470      329.446009    13     1     0     0     7
      1773.510599      231.776711      220.297137     1     0     0     0     3
      2612.669578      552.149666      281.732646     1     0     0     0     8
       340.448711      226.503642      368.761714    15     1     0     0     3
      1057.100786      473.700384      528.530909    30     0     0     0     4
       171.743303      599.023952      437.935007     9     3     0     0     6
       815.098283      347.895870      459.396312    23     1     0     0     8
        71.012300      202.322996      103.339621     7     0     0     0     7
        32.180801       52.052237      471.636494     6     1     0     0     7
        90.850326       58.996988       67.204704     6     2     0     0     6
       160.150804      375.260856       54.396930    10     3     0     0     6
       653.415905       41.171911      525.896740    15     0     0     0     3
      1772.287080      501.351629      431.091488     1     0     0     0     4
       388.116807       95.313076      294.867136    12     2     0     0     4
      2196.379196      331.557959       88.660761     1     0     0     0     1
       144.035572      345.850786      237.338361    14     2     0     0     5
       421.395487      332.799185      588.979515    10     2     0     0     5
        96.563303      296.136588      420.362697    12     3     0     0     2
       282.685412       24.317812      577.776314    11     5     0     0     6
      1301.361130      283.401127      461.117561    65     0     0     0     8
       575.014574      245.055711       63.899540    13     1     0     0     8
       583.963274      424.377076       33.099544    21     2     0     0     8
       484.275804      223.477602       71.416265    10     3     0     0     3
       169.462300      238.835868      519.951777     7     3     0     0     1
      1016.035825      537.591589      455.329944    26     0     0     0     6
       533.057569      249.558832       20.310973    28     1     0     0     3
      1899.221072      273.028000      246.013612     1     0     0     0     1
       870.252632      154.101768      165.078277    18     1     0     0     4
       131.688648       78.161943      455.910508    11     2     0     0     5
       441.863298      139.668168      281.221203    16     1     0     0     7
       119.808298      480.720578      257.928541     9     2     0     0     5
       304.190813      557.919699      361.053368     6     4     0     0     1
       520.247745       67.198238      534.881211    10     1     0     0     5
       301.709220       38.550192      515.077547    14     3     0     0     4
       351.393785      565.855979      234.860821    17     5     0     0     3
      2002.804123      560.398842      535.170470     1     0     0     0     8
      1234.694400      432.241201      205.583746     1     0     0     0     2
       277.814711      500.822458      225.389994    19     5     0     0     1
       637.560581       49.625462      383.888571    20     0     0     0     7
      2543.944639      185.792455      509.499856     1     0     0     0     7
        70.168298      275.481471      327.238430    17     2     0     0     3
       960.405778      166.327657       68.343759    24     1     0     0     6
      2288.175093      329.746118      442.827716     1     0     0     0     7
       535.194537      346.258041      359.113338    11     0     0     0     4
       232.764480      597.671401      563.286611    11     5     0     0     4
      2823.354708      543.313083      299.429301     1     0     0     0     8
       366.015794      183.437966       38.939645    16     1     0     0     4
       109.271303      216.124315      445.901169    12     1     0     0     7
      2588.546632      350.025054      289.727127     1     0     0     0     4
       492.624898       63.791618      325.212848    20     1     0     0     2
       216.500795      479.320025      399.001099    11     2     0     0     1
      1767.866757      484.699599       37.781051     1     0     0     0     4
       369.643297      457.391204      409.589933     8     2     0     0     2
       556.745805      177.566930      232.814330    19     2     0     0     8
       104.538438       28.148968      252.525323    19     5     0     0     3
      1271.589603      247.197427      548.379455    47     0     0     0     2
       137.973299      473.564098      348.559695    13     1     0     0     7
       136.122804      211.890363      192.996010     8     3     0     0     6
       343.511327      305.020807       26.033922     7     2     0     0     6
        41.804435      437.093060       37.565928    10     1     0     0     7
        50.184801      158.269390      516.957928     8     1     0     0     4
       531.028276      594.382082      368.220364    17     2     0     0     3
       102.518297       97.057825      567.995578    18     3     0     0     7
       516.225786      155.871205      118.016425    25     3     0     0     2
       289.388292      538.406464      132.520383     8     3     0     0     3
        51.864744      289.377466      228.982664     6     0     0     0     7
        50.503301      476.121073      196.144014     9     0     0     0     6
      1888.222122      455.972196       90.916365     1     0     0     0     7
       242.207307      486.893741      574.282013     9     2     0     0     6
      1544.709111      108.700284      508.013721     1     0     0     0     2
      1527.674315      435.856723      193.037966     1     0     0     0     8
       212.793794      235.560447      120.545837     7     1     0     0     3
       762.430803      403.759295      493.993024    18     0     0     0     4
       326.380815      124.436845      412.175855    12     2     0     0     8
       358.673296      241.445106      259.680138    16     3     0     0     8
       899.605846      446.107432      228.678004    18     0     0     0     5
      1043.885679      374.146949      182.000045    27     0     0     0     2
       377.860796      451.256472      553.299710     9     0     0     0     4
      1525.680678      554.176149      492.225264     1     0     0     0     5
       932.718670      512.702220      436.627280    21     0     0     0     8
      2269.563439      456.251790      564.964408     1     0     0     0     4
      2008.999065      510.565697       36.195748     1     0     0     0     3
      1560.442617      340.683617      405.472415     1     0     0     0     5
       380.370805       50.734912      174.194069    17     4     0     0     2
       316.232510       26.494415      205.501018    16     1     0     0     5
      1447.604252      379.698997       56.289077     1     0     0     0     8
      2475.673194      228.304397      554.732033     1     0     0     0     1
        79.976966       31.027682       73.412505     7     0     0     0     2
       728.633317      216.075312      344.684358    11     1     0     0     2
       224.178300      593.427175      101.962360    11     2     0     0     8
       766.800798      412.562296      234.274258    24     0     0     0     2
      1834.924435       12.620142      278.188483     1     0     0     0     4
      2295.999885      270.055190      347.121259     1     0     0     0     5
        25.335800       74.304137      515.074964     8     0     0     0     6
       759.450822      550.564065      154.621340    20     0     0     0     1
       703.580827      346.454301       79.436293    24     1     0     0     2
       110.420801      215.463931       17.672472     9     2     0     0     4
       421.435722      432.340794      353.479263     8     1     0     0     7
       806.933587      486.141628      336.417112    27     0     0     0     6
       663.947743      394.588825      290.275228     8     0     0     0     8
      3009.614910      391.921656      263.220217     1     0     0     0     4
       128.003297      368.196564       55.799549    15     1     0     0     6
       517.463672      262.024271      319.054931    14     1     0     0     5
       762.814711      449.125299      373.870869    11     1     0     0     8
       888.163917      470.321240      436.072324     9     0     0     0     5
       238.888307      232.988954      176.635916    17     2     0     0     2
       111.290803      197.981450      124.316732    13     4     0     0     6
       554.540788      482.371699      344.687583    16     0     0     0     2
      1484.378893      326.982910       40.311477     1     0     0     0     6
       492.015794      572.297367      442.994305    10     2     0     0     5
        62.777853      237.474680      356.487278    11     0     0     0     5
      2597.368317       70.249756      284.624841     1     0     0     0     7
      1866.886479       22.986792      494.016280     1     0     0     0     6
       116.865800      404.147784      290.750112     9     2     0     0     5
      3182.639938       49.861421      209.388770     1     0     0     0     7
       160.628829       27.185897      510.627896    14     3     0     0     7
       576.283281      256.478619      156.234385    18     2     0     0     8
       511.803300      116.700728       32.283543    13     4     0     0     1
       184.595293      556.955643      141.271661    11     5     0     0     4
      1071.966058      311.753170      272.903499    34     0     0     0     3
      1286.554675       17.461854      590.715781    82     1     0     0     7
      1809.972800      543.214294      329.051581     1     0     0     0     7
       525.228534      464.311816      510.295913    23     1     0     0     4
       173.660799      197.379692      158.102605    10     1     0     0     1
       484.700338      133.870463      455.037645    10     2     0     0     3
        90.055803      414.408582      103.880222    13     3     0     0     4
       422.430803      159.125270      204.607374    18     3     0     0     8
        67.292299      259.160954       88.682178     9     0     0     0     5
       944.311018        3.766566      139.927518    23     0     0     0     3
       210.561858      325.331708       58.037921     7     1     0     0     2
       339.065813      546.603845      376.162937    22     2     0     0     1
        54.635227      496.047353      464.475822     6     2     0     0     3
       206.825969      411.832498      520.934478    13     4     0     0     1
       314.663286      417.154432      512.822378    20     4     0     0     2