ITEM: TIMESTEP
0
ITEM: NUMBER OF ATOMS
        4515
ITEM: BOX BOUNDS pp pp pp
  0.0000000E+00   5000.00000000000     
  0.0000000E+00   600.000000000000     
  0.0000000E+00   600.000000000000     
ITEM: ATOMS x y z nV nH f3 f4 orient
      1776.580174      364.045731      444.365406     1     0     0     0     7
       559.387431      101.991257      288.045310    16     0     0     0     4
       400.823289      470.604100      267.309863    17     0     0     0     7
       303.457704      115.518721      360.555534    11     0     0     0     2
       264.855087      593.411704      573.609695    12     1     0     0     1
        35.738225      511.287006      325.447524     8     0     0     0     4
       114.084802      394.148639      518.499933     9     1     0     0     2
        46.148302      356.840329      446.943171     9     0     0     0     7
       269.813310      281.536536      251.729114    17     1     0     0     3
       110.295793      258.323928      225.264642    11     2     0     0     7
       401.760306      231.485250      407.832079    11     2     0     0     6
       431.818315      243.844463      444.531260     7     0     0     0     3
       341.658311      461.801451      401.231994    11     2     0     0     4
       131.400875      553.067863      455.926506     9     2     0     0     2
      2444.570926      336.148134      301.525013     1     0     0     0     3
       363.763292      417.804346      274.112754    23     5     0     0     4
       583.963274      424.377076       33.099544    21     1     0     0     6
      1421.021644      459.803168      179.710371    81     1     0     0     6
       683.255821      437.455497      347.906159    22     3     0     0     2
       135.657717      356.716992      587.923885    14     0     0     0     3
       391.095811      447.755490      594.230307    13     2     0     0     5
      1124.251387      219.271402      238.861458    38     0     0     0     1
      1033.603151      593.680847      402.862535    24     0     0     0     7
       131.616800      577.799402      183.789381     9     0     0     0     2
        28.596799      116.628884        8.129729     9     0     0     0     7
       298.468309      469.083887      156.529407    12     0     0     0     1
       391.630815      209.717794      221.085106    12     1     0     0     8
      1940.661732      568.894755      387.596358     1     0     0     0     8
        67.500605      407.501752      361.020092     8     0     0     0     2
       126.010797      466.609369      472.277756    10     2     0     0     2
       952.383317      106.135245      308.863376    32     0     0     0     8
       605.753313      354.478641      419.761537    15     0     0     0     6
        65.968301      421.578620      142.599576     6     0     0     0     1
       443.260595      594.217136       46.312803     9     5     0     0     4
       513.064796      508.251006       91.261928    13     2     0     0     8
       163.533800      179.779724      487.270445    11     1     0     0     1
       301.272794      458.417185       80.430632    19     1     0     0     6
      1026.572771      552.768636      233.999458    29     0     0     0     7
       589.253313       20.934544      264.625294    19     3     0     0     3
      2452.199386      310.067815      149.760950     1     0     0     0     7
       834.100902      558.021809      512.273213    27     0     0     0     4
      2276.727405      364.128774      480.471811     1     0     0     0     2
       556.358293      538.633571      275.354940    17     2     0     0     6
      2078.431671       68.754028      555.877292     1     0     0     0     2
       219.678300      134.266890      294.164989    13     1     0     0     8
       163.728807      591.570414      172.159880    14     0     0     0     7
        36.549501      258.308292        2.430419    15     0     0     0     8
      1929.029601      136.335530      346.030154     1     0     0     0     1
       107.838226      291.992745       63.698526    13     1     0     0     7
       923.132975       87.875056      544.231616    18     1     0     0     5
        94.613298      289.784008      497.289399     6     0     0     0     7
       270.918235      256.668888      253.167364    12     2     0     0     4
       168.029298      320.196145      592.914886    13     2     0     0     1
        34.921023      382.274814      273.051198     6     0     0     0     1
       292.814287      536.844256      557.935657    12     1     0     0     1
       573.319285      124.082995      490.841040    18     1     0     0     2
      2426.021990      359.725775      220.803008     1     0     0     0     2
       102.138572      383.863101      308.685899    13     0     0     0     2
      1901.574854       78.120670      395.441665     1     0     0     0     7
       533.057569      249.558832       20.310973    28     4     0     0     3
       327.126092      311.558443      444.995122    16     2     0     0     2
       859.510820       25.954302       24.583610    10     3     0     0     3
       123.478303       69.064057      269.287035    18     0     0     0     2
      1087.510725      399.568801       28.743837    24     1     0     0     5
       224.144375      478.747359      515.007573     9     1     0     0     2
       174.374407      544.663267      579.124150     7     0     0     0     3
       167.625795      113.584129      227.781909    14     0     0     0     8
      2563.731658      499.631125       30.235551     1     0     0     0     4
       541.178300      484.616676      234.412300    23     1     0     0     3
       621.284471      152.077605       31.013593     8     1     0     0     8
       284.441916      292.104718      483.783816    11     3     0     0     6
      1827.208476      566.723900      295.757133     1     0     0     0     6
       453.319888      530.030071      438.445400    10     4     0     0     6
       394.159189      174.576056      321.024759    10     3     0     0     3
       106.281854      253.459143      126.705921    17     4     0     0     3
      2993.632780      176.404611      307.379126     1     0     0     0     2
       174.565970      307.166231       63.756920     7     0     0     0     5
       336.303386      350.569861      561.865583    11     3     0     0     6
       174.613298      147.673373       24.549928    11     1     0     0     4
      1728.930807      595.976548      355.937579     1     0     0     0     5
       494.175798      163.712313      381.307886    18     4     0     0     5
       240.123676      592.761058      234.552411     6     2     0     0     7
       168.771852      177.926216      450.488224     9     0     0     0     1
       184.595293      556.955643      141.271661    11     2     0     0     2
       214.065298      394.961150      268.330406    10     2     0     0     5
       528.212881      343.153751        8.205832    19     2     0     0     5
      2581.509913      100.731048      108.343329     1     0     0     0     7
      2599.663770       75.657014      153.505238     1     0     0     0     3
       210.618303      135.471819      594.994327    17     1     0     0     4
        70.392801      154.712227      346.361581    11     1     0     0     1
       551.458330      219.150205       92.096632    17     0     0     0     6
       375.848001      542.836914      260.029671    12     0     0     0     3
       465.163004      484.666657      268.474228    13     5     0     0     3
      1000.687020      420.115545      560.010727    51     2     0     0     3
      2535.276185      516.741957      394.114735     1     0     0     0     7
       190.068387      266.143050      231.614797     9     0     0     0     2
        78.586215      505.457830      431.067289    12     0     0     0     2
        41.804435      437.093060       37.565928    10     0     0     0     6
        82.149797      399.124975      308.787709    11     0     0     0     5
       421.566734      419.949864      183.367881    11     0     0     0     7
        64.740800      488.225278      126.045905    12     0     0     0     3
       640.513361      528.102378       28.087963    26     3     0     0     7
      1251.019440      287.595557      376.166083     1     0     0     0     4
       931.378423      291.667554      528.077768    33     2     0     0     6
       666.242412      533.896757      540.815378    33     0     0     0     7
       116.757274      426.190426      151.007589     4     1     0     0     3
      1222.351178      497.938956      325.445405    53     3     0     0     7
       229.738735      476.486384      493.496560     9     2     0     0     8
      1484.740170      103.657626      394.347351    92     2     0     0     3
       747.853288       84.682061       73.257039    26     1     0     0     4
       301.440813        7.785369      453.669579     9     1     0     0     5
       913.638322      277.270105      213.633194    34     0     0     0     5
       289.774686      539.554369      459.153229     6     0     0     0     2
      1960.153835       93.024356       17.612173     1     0     0     0     2
       190.960881      546.007538      149.917777     9     1     0     0     1
       723.215776      351.917576      337.400845    13     1     0     0     5
       115.514963      367.524547      365.654796     5     0     0     0     7
      2612.767168      220.466222      470.349353     1     0     0     0     6
      1933.923074      546.539925      537.674903     1     0     0     0     8
       352.635734      547.954310      556.970984     9     0     0     0     3
       511.765794      597.577097      385.024851    10     2     0     0     7
       120.032804      203.838434      513.571316    11     0     0     0     5
       439.840806      303.520678      272.415457    20     4     0     0     2
       806.889091      114.052819      238.163512    16     2     0     0     8
      1517.447932      550.498668       74.431851     1     0     0     0     6
       728.633317      216.075312      344.684358    11     1     0     0     1
      2437.168180      432.803409      221.629435     1     0     0     0     2
      1737.730701      498.883106      219.240569     1     0     0     0     3
       157.193300      470.909559      450.799276    15     0     0     0     5
       731.185752      554.132041      106.082931    15     1     0     0     4
       894.434658       75.149388      334.669860    15     0     0     0     8
       610.172109      464.891116      207.476983    12     2     0     0     2
       265.455797      194.515024      419.727158    12     0     0     0     5
       113.385838      483.557710      586.005597    11     0     0     0     2
       516.483293      555.650220       49.650899    16     0     0     0     5
       797.314014      477.720608      311.900129    17     1     0     0     4
        43.611781      151.799255      476.640553    14     0     0     0     4
      2026.696788      290.240899      415.348006     1     0     0     0     1
      2837.597881      548.060807      288.351277     1     0     0     0     2
       447.170139       67.762136      570.278382    16     0     0     0     1
      2010.179272       77.861964      476.624194     1     0     0     0     5
       323.890794      245.379020      159.723906    11     2     0     0     2
      1221.002986      521.656451      319.549205    46     1     0     0     2
       195.933516      351.934663      225.227752    21     1     0     0     1
      2598.689845      359.771347      523.212017     1     0     0     0     4
      1139.171759      343.819401       64.288324     1     0     0     0     5
        63.121474      180.780703      347.541843     6     0     0     0     8
       551.155778      271.535884      173.145269    17     2     0     0     7
      1873.548329      345.248296      368.372220     1     0     0     0     6
        67.230798      394.556411      450.855465    10     0     0     0     4
        68.613969       75.876317      578.829771    18     0     0     0     8
       401.688310      369.623123      371.468958    11     1     0     0     6
       255.667178      191.172712       15.269533    17     2     0     0     7
        91.533615       63.691778      280.341023    15     0     0     0     5
       879.625810      452.118901      344.011689    15     0     0     0     7
       480.725786      556.276815      486.692417    15     0     0     0     6
       182.218722      188.525878      498.538607     6     2     0     0     1
       843.599544      222.508101      234.105357    24     2     0     0     2
       196.228303       49.031612      330.013415     8     1     0     0     1
       209.041155       50.038310      177.146189     8     2     0     0     6
        41.160799      251.752813      200.747680    10     0     0     0     4
       281.408225      213.978378      577.468570    12     3     0     0     1
       106.158502      499.966942      377.443772    14     1     0     0     4
      2091.188918       21.124506      139.315339     1     0     0     0     5
       411.448866      435.614828       49.305248    12     0     0     0     7
        50.780876      165.389823      363.122994     7     0     0     0     4
       439.527627      574.820621      113.791554     9     2     0     0     5
       256.403080       25.609316       80.127371    12     2     0     0     3
        74.046524      361.792631      452.197580    11     1     0     0     3
       124.138609      378.125613      490.554469     9     1     0     0     8
       199.735725      104.156500      278.677012    20     2     0     0     6
       544.008317      268.374461      334.750642    12     0     0     0     3
       682.747660      449.656128      110.711558    35     0     0     0     5
       287.176996      142.734439      109.658342     6     1     0     0     5
       832.305803      523.203326      281.097466    12     1     0     0     4
      1710.247391       82.600331      428.358261     1     0     0     0     4
      2099.317008      260.263835       95.000909     1     0     0     0     6
       350.891216      359.912520      338.253076    11     1     0     0     3
       525.441789       10.313421       91.101260    12     2     0     0     7
       289.093450      109.441326      376.953057    12     2     0     0     4
        50.184801      158.269390      516.957928     8     0     0     0     5
       400.970811      167.650629      519.692180     8     3     0     0     3
       883.570817        7.608546       10.002761    25     1     0     0     8
       912.073320      144.176114      500.192215    27     0     0     0     8
      1839.592913      232.227268      477.150546     1     0     0     0     3
      2146.865077       70.082902       55.602831     1     0     0     0     3
       510.187803      465.756699      250.707573    12     2     0     0     6
      1590.208433      131.489375      567.405787     1     0     0     0     2
       402.850786      254.118512      591.778330    15     0     0     0     4
       583.348283      543.125312      327.279156    17     1     0     0     5
      1757.448717      289.907794      394.972072     1     0     0     0     4
        79.375803      185.435163       60.645170     9     0     0     0     8
       992.160042      182.926797      571.483034    24     0     0     0     2
       578.573663      292.077855      507.774402    17     0     0     0     2
       756.205827      173.738497      504.630133    10     1     0     0     3
      1181.348854      548.106359      230.551242    33     0     0     0     8
      2371.082133       81.752066      546.134906     1     0     0     0     5
      2089.016208      348.554214      212.600534     1     0     0     0     8
      2391.620073      321.263319      447.438235     1     0     0     0     3
       462.461054      187.841410      353.604787    12     1     0     0     4
      2847.087863       16.210670      472.749683     1     0     0     0     3
       106.319067      542.357784       74.173010    14     1     0     0     2
      1442.739138      428.844528      285.074647     1     0     0     0     6
       161.745640      482.736078      311.714773     6     0     0     0     7
      1690.306804      154.805761       66.318426     1     0     0     0     2
       360.340806      598.421688      408.830850    10     0     0     0     8
       649.003926      294.143445      310.161764     8     1     0     0     7
       393.018297      145.101238      543.547630    16     1     0     0     5
      1149.782207       43.070454      382.106591     1     0     0     0     1
      1834.648509      275.773477      283.951524     1     0     0     0     4
        73.231252      145.718240      522.745011     6     0     0     0     4
      1816.683556      262.060314       61.368367     1     0     0     0     4
       181.891422      140.923300      184.700909     8     0     0     0     8
      1754.608864       38.747030      240.888060     1     0     0     0     2
       356.285295      325.021820       89.871349    15     0     0     0     7
       456.959165      149.480494      535.004710    19     2     0     0     4
       477.788230      118.484626      433.294433     9     2     0     0     6
       292.325792      141.570783      511.223348    12     1     0     0     3
      1318.370184      180.473055      327.738897    54     1     0     0     2
       165.015880      240.998210      462.800719    11     2     0     0     5
        42.921611       33.357840      363.869660    14     0     0     0     5
        71.726297       19.363597       51.361224     8     4     0     0     4
       618.780778      542.646768      344.869007    19     2     0     0     2
       475.767389      400.814079      311.485090    13     2     0     0     5
       261.629863      520.466537      488.983214    10     4     0     0     4
      1467.105315      356.631653        5.624997     1     0     0     0     6
      2107.178827       96.833482      332.113898     1     0     0     0     4
      1976.143021      364.918566      161.947573     1     0     0     0     7
      2284.318964      565.699612      322.131274     1     0     0     0     4
       850.215776      434.932262      356.120239     8     0     0     0     3
       136.122804      211.890363      192.996010     8     0     0     0     7
       813.971302      269.796962      528.992152    20     1     0     0     4
       902.755699      177.139776      555.390510    24     0     0     0     2
      2022.330397      522.749670      130.737782     1     0     0     0     3
       740.425798      472.664809      276.268626    21     1     0     0     3
      2318.155932      247.899143      353.451558     1     0     0     0     5
       936.901042      110.058585      513.264453    30     0     0     0     8
       818.463274       56.282246      595.718261    18     0     0     0     4
       167.194548      599.231582      196.664421    14     4     0     0     3
      1939.890813      248.058540      405.411256     1     0     0     0     7
      2322.531507      547.753317      334.566565     1     0     0     0     2
       552.331158      440.276490      280.593332    12     0     0     0     2
       813.330501      382.466269      464.471304    19     1     0     0     4
       134.595796      402.752026      406.762496    20     0     0     0     4
       181.066776      110.187038      172.745213     5     0     0     0     4
       162.255800      504.811432      320.317998    24     1     0     0     5
        39.070798      142.409707      114.062928     6     0     0     0     8
      1426.402882      190.624242      574.103672    75     1     0     0     8
      1171.725218      129.255640      306.545506     1     0     0     0     1
        40.906495      517.915490      470.059041     8     0     0     0     6
      1792.498788       51.808794      310.847756     1     0     0     0     4
       262.470811      251.898473      184.773389    13     2     0     0     3
      1425.298764      559.146360      139.589800     1     0     0     0     6
       684.302448      322.439880       31.241815     9     2     0     0     2
       207.692379      583.007210      179.387609    17     2     0     0     1
      1020.093228       72.655108      239.917228    33     0     0     0     3
       285.101438      408.211929      579.895030    11     4     0     0     4
      1055.192702      354.004563      557.639119    24     2     0     0     6
       750.531404      563.187505      307.332892    19     6     0     0     2
       334.502683      344.524995      255.724891     9     2     0     0     3
       376.742296      577.041148      437.903856    11     4     0     0     1
        67.292299      259.160954       88.682178     9     0     0     0     6
       135.409313      247.590885      455.349834     8     2     0     0     2
        72.447246      388.640148      509.335832     7     0     0     0     4
      2158.795960      352.225353       27.566814     1     0     0     0     1
       121.169471      190.053582      384.672534     9     4     0     0     2
        69.651121      329.486445      363.625500     8     0     0     0     6
        71.158304      550.889029      387.676193    10     0     0     0     8
       208.130296      339.136698      348.598232    14     3     0     0     8
       335.312585      174.986975      289.263855     9     2     0     0     4
       482.578294      224.301897      457.707464    14     0     0     0     8
       466.395799      179.552629      162.747115    16     2     0     0     8
       994.857784      393.672618      129.006860    19     1     0     0     6
      1704.176741      108.829477      312.862057     1     0     0     0     4
       830.590898      520.754544      133.202646    18     2     0     0     5
       226.637229      494.361233      523.040697     6     1     0     0     4
        97.809177      113.273279      332.070486    10     0     0     0     1
      2537.614340      236.434849      563.307400     1     0     0     0     7
       124.170801      250.474890      280.522636    13     1     0     0     1
       224.658296      140.467752      456.150212    10     2     0     0     5
      2283.427368      309.172645      447.575440     1     0     0     0     4
       358.328225      546.854613      467.473212    10     0     0     0     1
       114.788301      406.559629        8.577056    15     0     0     0     5
      2703.032305       61.980596      179.564756     1     0     0     0     5
       356.514787      328.676580       58.753751    14     2     0     0     4
       492.015794      572.297367      442.994305    10     3     0     0     3
      2604.557129       79.206676      423.318341     1     0     0     0     5
       451.001707      235.050414      449.260335    13     1     0     0     7
       274.953813      239.055554       52.050098    14     0     0     0     8
      1899.244603      406.727257      493.642877     1     0     0     0     5
       980.746156      481.535727      333.567780    34     0     0     0     7
        55.527725      470.660654      363.887929    11     0     0     0     6
       232.181220      415.895373      407.887826    21     4     0     0     4
       234.760805      306.910510      290.963552    13     1     0     0     3
       297.899309      187.381538      262.504526    12     2     0     0     2
       161.887604      455.673120      250.510926     9     2     0     0     8
      1528.883363      130.856332      504.848572     1     0     0     0     3
        62.439461      407.725892       81.780873    12     1     0     0     7
       309.884530      225.369458      104.106297    12     2     0     0     5
        81.330797      516.532661      207.719407    16     0     0     0     8
       180.666795      429.919385      111.559118     8     1     0     0     1
       763.296629       53.473161      160.214575    11     1     0     0     4
       237.156966      551.142221      471.278714    18     2     0     0     4
       868.260298      272.666724      281.940251    14     0     0     0     5
      1617.729689      432.589301       60.019344     1     0     0     0     8
      1993.978689      268.464418      130.690192     1     0     0     0     3
       137.729295      188.126641      515.036378     9     1     0     0     4
      1681.682408       50.328281      496.939117     1     0     0     0     5
       293.297288       69.090995      482.834520    17     1     0     0     4
       130.758302      339.210983      355.849223    17     0     0     0     5
       817.265825      304.944725       56.581968    25     3     0     0     2
        42.200650      389.625574      470.280341    11     1     0     0     1
       156.058305      487.254050      236.236948    13     2     0     0     5
       141.029763      496.846183      227.662667     9     3     0     0     8
       110.523798      244.972681       27.106732     6     1     0     0     4
       816.249044       77.586634      161.548113     8     1     0     0     5
      1615.038954      200.586582       37.284809     1     0     0     0     8
       190.326956      223.082525      486.077595     6     1     0     0     1
      2312.632202      522.224095       52.342102     1     0     0     0     8
      2641.991553      457.337485      502.904795     1     0     0     0     5
      1746.485077      387.263298      233.197165     1     0     0     0     2
       350.670793      598.778375      409.094497     9     2     0     0     6
       307.947801      149.957401      323.686301    14     0     0     0     5
      1507.471364       81.943580      106.830786     1     0     0     0     6
      2251.573950      228.472799      336.834514     1     0     0     0     4
       147.396096      590.871761      595.336711    13     2     0     0     1
       630.595781      111.860069      577.025270    11     3     0     0     2
      1731.468373       95.294120      596.526919     1     0     0     0     2
       400.160534      393.127071      383.966611    13     3     0     0     2
      1668.200934      277.002991      300.179822     1     0     0     0     6
      1962.666803        4.113467      102.051145     1     0     0     0     6
       103.121024      148.886068      351.151419     9     0     0     0     2
      1286.554675       17.461854      590.715781    82     0     0     0     2
       740.020830      307.608728      262.743427    11     2     0     0     8
      1406.461703      490.892682      231.396052     1     0     0     0     3
       423.716260      234.455156       76.183007    15     1     0     0     6
       248.265794      375.473826      391.715404    10     3     0     0     2
       329.586170       35.361161      417.971123    15     1     0     0     5
      2900.150569      400.782820      486.482234     1     0     0     0     5
       206.680486      459.564773       90.604318    14     0     0     0     8
       630.076104      458.749439      411.993895    18     0     0     0     8
       343.511327      305.020807       26.033922     7     1     0     0     4
        84.648302      576.206812      442.726013    12     2     0     0     7
       773.030214      230.812627      417.135213    25     1     0     0     2
        26.758300      117.151422      428.551501     9     0     0     0     4
       761.149230       27.120886      356.937455    21     0     0     0     3
      1410.966519      395.103103      573.117886    77     0     0     0     3
       328.033311      501.986452      530.081840    14     1     0     0     6
       113.985803       78.034621      427.460368    15     0     0     0     3
      2784.190602      454.418728      448.942605     1     0     0     0     6
      1850.729831      547.306237      427.283013     1     0     0     0     5
       508.570510      486.467118      574.859058     7     1     0     0     6
      2861.659141      236.042084      469.737907     1     0     0     0     7
        52.073319      427.709096       29.942125     7     0     0     0     2
        72.591798      293.743792      295.529162     8     2     0     0     3
       421.790788      526.527979      534.161363    10     2     0     0     3
       151.254924      357.752117      409.272187    12     1     0     0     4
       157.517305      513.871800      306.903217     6     0     0     0     4
       898.423296      291.212638        3.373150    31     1     0     0     5
      1865.854874      484.616804      441.562844     1     0     0     0     7
       255.446306      350.546877      412.657941     6     3     0     0     3
       260.835802      203.860650      217.988087    14     0     0     0     3
        26.190799      506.147763      252.298850    10     0     0     0     6
       487.235796      193.122244      348.073921    10     2     0     0     4
       644.004777      127.324054       77.680980    19     5     0     0     6
       773.809527      265.482295      181.515892    16     1     0     0     4
       153.108726      273.742507       88.885255    13     1     0     0     4
       352.943315      199.741431      583.463375    14     0     0     0     6
       805.081265      552.350178      370.986939    22     2     0     0     2
       577.200706       86.041973      401.740638    16     0     0     0     1
       396.043268      213.569481      257.952685     8     0     0     0     7
       131.651081      151.937393      333.487134     9     0     0     0     3