ITEM: TIMESTEP
0
ITEM: NUMBER OF ATOMS
        4514
ITEM: BOX BOUNDS pp pp pp
  0.0000000E+00   5000.00000000000     
  0.0000000E+00   600.000000000000     
  0.0000000E+00   600.000000000000     
ITEM: ATOMS x y z nV nH f3 f4 orient
       229.738735      476.486384      493.496560     9     3     0     0     3
       933.505018      135.739773      199.750156    16     0     0     0     6
       237.156966      551.142221      471.278714    18     2     0     0     4
       659.601129      355.555604      236.678068    10     2     0     0     1
       668.668291      258.067846      350.532157    14     2     0     0     6
        77.195212      377.105348      369.316439    15     1     0     0     2
      1008.907421      353.921401      296.945741    21     0     0     0     2
       962.783281      549.212002      463.924283    33     0     0     0     3
       896.563310      572.260956      555.754056    28     0     0     0     2
       623.442861      433.404232      412.795897     9     2     0     0     1
       123.924819      250.147096       83.437589    11     1     0     0     6
       381.503313      385.759204      443.634585    22     0     0     0     6
       193.720792      133.492878      404.194552     8     0     0     0     2
       265.769977      368.449034       57.911932    15     0     0     0     1
      1867.612759      165.749557       23.513719     1     0     0     0     3
       114.738298      271.352877      229.685135    12     0     0     0     5
        42.725801      576.447509      382.066038     8     0     0     0     5
       427.697313       77.074195       58.323168    18     2     0     0     1
      1020.812429      594.333299      455.202704    37     2     0     0     3
       936.901042      110.058585      513.264453    30     0     0     0     6
       551.458330      219.150205       92.096632    17     0     0     0     6
       339.363786      103.156964       46.798503     7     1     0     0     8
       317.913249      192.385477      507.313495     6     1     0     0     6
        42.066950      203.407965      473.469797    12     1     0     0     2
       182.895799      213.656151      178.270131     9     1     0     0     2
       646.305858       63.286081      200.914036    19     5     0     0     2
       367.018297      114.372518      343.895971     9     1     0     0     8
      1518.578815      262.438695      568.102293     1     0     0     0     5
       133.943300      178.862408      570.467413    18     0     0     0     5
       517.883389      260.709305      300.897845    14     1     0     0     1
       106.580301      525.242564      458.895033     6     0     0     0     5
      1601.626123      203.342328      257.167187     1     0     0     0     8
       589.253313       20.934544      264.625294    19     1     0     0     4
       325.598314      229.282420      176.168680    13     1     0     0     7
       415.198461       17.985197      380.236385    15     0     0     0     2
       654.778956        6.936790      101.331406    13     1     0     0     1
       301.709220       38.550192      515.077547    14     4     0     0     5
       384.434407       38.147059      235.365339    18     2     0     0     3
        32.123300      490.939839      525.267994     9     0     0     0     5
      2206.652864        6.272600      344.831329     1     0     0     0     5
       102.698165       67.098848      221.637596    13     1     0     0     5
      2199.302661      520.268299      125.546633     1     0     0     0     8
       436.159992      223.866864      171.055225    14     0     0     0     8
      2830.454213      269.435817      258.394567     1     0     0     0     4
       357.408614      134.191760       58.597235     8     1     0     0     2
        81.725438      531.614249      219.702465    14     0     0     0     1
       147.150804      312.473949      450.073418     6     0     0     0     4
      1967.293853      210.132120      304.106567     1     0     0     0     4
       231.099053      130.990905      291.276306     5     1     0     0     6
        85.984985      190.883295      412.654298     7     0     0     0     5
       313.463304      242.996080      153.361260     5     0     0     0     2
       171.364768      251.516741      405.676379    10     2     0     0     3
       466.395799      179.552629      162.747115    16     0     0     0     2
       511.627125       37.371029      431.863543    11     0     0     0     7
       207.692379      583.007210      179.387609    17     0     0     0     8
       164.904802      550.661964      538.959958    11     5     0     0     5
      1697.266632      201.942884       74.127274     1     0     0     0     8
       142.751327      268.813619      451.519654    11     0     0     0     2
       154.910295       34.682271       67.117321    12     2     0     0     1
       135.657717      356.716992      587.923885    14     0     0     0     3
       232.958002       11.850839      195.572033    14     0     0     0     1
       190.509262      335.585754      172.992034    11     1     0     0     6
       541.348172       30.157208      446.901894    10     1     0     0     3
      1126.505815      546.016033      283.723687    29     1     0     0     4
       447.380815      120.132353      482.987445    26     6     0     0     5
       362.370805      177.224090       63.909800    13     2     0     0     3
       520.842173      257.952854      276.021937     7     2     0     0     6
      2741.676042      133.059913       12.798365     1     0     0     0     7
       834.124902      116.272836      213.668263    27     1     0     0     8
       674.343395      159.821551      204.471209    13     1     0     0     4
       633.263322       60.088139      417.338226     8     2     0     0     6
       372.470811        1.580905      407.398968    12     1     0     0     3
        93.849802      452.374096      341.801963    10     1     0     0     3
       614.119493      145.436300      132.250468     6     4     0     0     8
       594.098283      101.447326      531.046054    13     4     0     0     2
      2901.223512      269.276156      474.485631     1     0     0     0     8
       106.853303      446.386585      216.033319     8     1     0     0     7
       750.531404      563.187505      307.332892    19     1     0     0     3
       265.394304        4.204761       64.126540    18     4     0     0     3
      2041.709292      357.660414      119.389629     1     0     0     0     1
       187.067293      581.144956      100.687917    10     2     0     0     5
       599.350730      395.135501      566.805756    17     1     0     0     3
       502.459072      264.924725      396.165454    14     1     0     0     8
       743.075822      402.833331      446.863043    15     0     0     0     8
       355.596038      100.402238      320.776213    11     0     0     0     7
       212.330797       60.251005      341.072991    13     4     0     0     2
      2449.406395      323.423621      597.717543     1     0     0     0     3
      2742.487608       33.851504      594.722248     1     0     0     0     1
       192.284303      527.467228      290.342177    15     1     0     0     8
       771.441720       91.085129      113.687349    26     1     0     0     1
       899.605846      446.107432      228.678004    18     1     0     0     8
      1608.210733       64.227789       12.570349     1     0     0     0     1
       355.706392       98.906637      389.641373     9     2     0     0     3
       140.538301      165.502876      192.507587    10     2     0     0     6
      1734.995357      414.504466      475.559887     1     0     0     0     3
       658.587764       71.790262      356.322337    17     2     0     0     7
       568.105791      565.622571       72.830955    22     1     0     0     5
      1638.285577       10.456352      349.207531     1     0     0     0     5
      1285.814780      331.726526      210.623596     1     0     0     0     3
       299.025804      418.091750      443.624890    12     2     0     0     4
       227.910657      251.113828      261.847897    12     1     0     0     1
        26.763643       36.916682      273.408592     5     0     0     0     4
        65.618299      446.086133      489.516980    12     1     0     0     6
       291.108482      525.417516      422.798169    19     2     0     0     6
       273.093883      306.133329       24.004115     9     0     0     0     8
        73.763631       79.526727      458.057797     8     0     0     0     6
       421.795793      237.899692      490.747486    18     3     0     0     7
       106.555952      513.447500       24.403239    13     2     0     0     8
       313.610307       73.488633      488.967537     9     3     0     0     6
       584.545074      245.001544      303.703801    18     2     0     0     6
       460.236028      224.207469      532.266913    21     1     0     0     6
       107.838226      291.992745       63.698526    13     1     0     0     6
       424.018297      315.084472      141.581112     8     1     0     0     2
       245.906372      231.994397      427.536751     9     0     0     0     7
       174.248222      311.561119      291.601302    12     0     0     0     6
      1561.556752      226.931897      392.679990     1     0     0     0     4
       234.608293      356.547351        7.422590    10     0     0     0     8
      2397.214688      336.130744      202.607492     1     0     0     0     6
       598.841029      373.466777      407.034440     9     1     0     0     4
       744.660783       13.507322      195.044665    20     0     0     0     1
       131.574800      185.336200      403.899145     9     0     0     0     7
       173.015286      479.832714      519.385669     9     0     0     0     5
       891.540905      365.234632      466.235621    26     1     0     0     4
       178.670879      419.693138       60.199945     7     0     0     0     7
      2130.313717      237.778081      471.167788     1     0     0     0     6
       118.597836       10.058717      476.203637    12     0     0     0     4
       174.510805       80.982328      199.654334    14     1     0     0     4
      2056.506664      140.563133       13.943113     1     0     0     0     4
        69.787709      348.548261      529.964650    14     0     0     0     4
       215.868303      220.843775      205.499733    15     0     0     0     3
       296.144304      365.477618       23.748080    11     0     0     0     8
       595.428300      139.794378      251.624434    14     2     0     0     7
       683.255821      437.455497      347.906159    22     0     0     0     7
       825.839281      302.692656      220.548676    16     2     0     0     7
       265.455797      194.515024      419.727158    12     4     0     0     4
       300.963899      338.024360      437.340446     8     0     0     0     2
       757.438310      593.936925      306.950017    13     1     0     0     7
       166.733293      435.813007      484.807943    12     3     0     0     7
      2055.242765        9.822792      362.723699     1     0     0     0     5
       131.400875      553.067863      455.926506     9     1     0     0     7
      2648.484138      124.785126      392.075194     1     0     0     0     3
       326.380815      124.436845      412.175855    12     0     0     0     8
       109.745798      116.882658      558.743389    11     0     0     0     4
        73.080797       60.734820      267.109957     8     0     0     0     5
      2547.847669      585.340943      116.709344     1     0     0     0     7
        97.582101      509.520910       83.023702    12     0     0     0     3
       324.241027      496.148073       52.272258    18     4     0     0     7
       144.738298      204.458353      583.692203    15     0     0     0     6
       202.521423      247.760248      454.946387     8     1     0     0     6
       139.693300      355.379743      510.615683    12     1     0     0     7
       485.615659      228.063894      486.351926    10     1     0     0     7
       236.560792       95.516614      409.790343    25     1     0     0     2
       130.758302      339.210983      355.849223    17     0     0     0     6
      1811.203572      401.354792       30.671592     1     0     0     0     4
       134.152994      267.041284      399.628546    10     1     0     0     1
       271.760789      586.164761      408.890553    13     2     0     0     2
       232.161307      181.681662      214.294579    13     1     0     0     3
       310.518785      263.653909      210.702126    17     3     0     0     3
        29.451801      599.295479      263.193038    10     0     0     0     4
       237.620805      171.798408      565.271606    18     2     0     0     7
        40.434123      263.960148      189.165924    10     0     0     0     5
       183.318300      584.864259      152.996633     8     0     0     0     4
       277.309843      295.038060       39.135524    10     2     0     0     1
      1822.462243      493.717451      398.577908     1     0     0     0     2
       575.880815       16.005159      597.926824    21     4     0     0     4
       168.771852      177.926216      450.488224     9     0     0     0     5
        93.734527      244.588568      271.340649    17     1     0     0     3
       475.593309      294.784129      523.380098    11     0     0     0     2
       180.332221      177.527306      590.422186     8     1     0     0     2
       155.778306      123.993547      308.276801     9     1     0     0     1
       171.894807      316.670630      547.914596    13     1     0     0     7
       281.071727      182.879414      537.690713    10     0     0     0     3
        97.211740      301.955961      119.338801     6     1     0     0     6
       228.828798      221.528806       49.771307     8     1     0     0     4
      1071.966058      311.753170      272.903499    34     0     0     0     7
      2057.527367      538.470057      282.484299     1     0     0     0     6
      2255.359575      242.973765      587.761435     1     0     0     0     1
      1332.230201      433.240655      123.166157    59     1     0     0     1
       219.454359      194.918415      552.690784     6     0     0     0     6
       341.658311      461.801451      401.231994    11     0     0     0     5
       877.738298      295.518854       54.173795    30     0     0     0     4
       300.630815      400.594390      266.311022    11     3     0     0     2
       166.804033      530.968084      175.462637    13     1     0     0     3
       262.470811      151.804470      301.998384    11     2     0     0     7
      2192.640686      205.321455      109.887258     1     0     0     0     2
      1852.234223       94.933331      244.989845     1     0     0     0     4
       129.452302      547.803342      273.183537    13     1     0     0     1
       173.660799      197.379692      158.102605    10     1     0     0     7
        27.425794      234.698709      574.680951     9     0     0     0     3
        49.197426      441.736791      363.450413    11     0     0     0     7
      1886.029969      555.325467      486.807965     1     0     0     0     6
       159.738298      480.215527      175.302517     9     0     0     0     1
       797.314014      477.720608      311.900129    17     1     0     0     3
       282.881435      350.043418      516.329442    13     1     0     0     4
       565.390825      509.563639      547.030707    12     1     0     0     6
       271.715906      434.314442       54.940735    14     0     0     0     1
      1891.848074      321.101493      114.709148     1     0     0     0     8
      2142.535262      463.185002      413.337111     1     0     0     0     8
      2354.305121      388.646309      113.795327     1     0     0     0     2
       516.884419      541.631702       16.069443    13     3     0     0     3
      2247.686290      183.346738      599.028139     1     0     0     0     2
       414.188646      309.083062      596.081989    21     6     0     0     7
      1506.848077      244.806131      258.131461     1     0     0     0     8
       201.086028      140.807973      138.293323    15     0     0     0     7
      1426.184801      534.892143      409.205532    33     0     0     0     4
        90.477800       61.714238      128.132079    13     2     0     0     5
       240.123676      592.761058      234.552411     6     0     0     0     1
       683.175798      176.221432      275.375681    16     0     0     0     8
       514.880296       86.670565      446.300282    14     3     0     0     6
      2016.582145      580.671716      116.985195     1     0     0     0     3
       217.032999      492.831896      288.592327    16     2     0     0     6
       136.030794      434.350182       41.162923     6     2     0     0     8
       115.775796      440.899424      455.075911     9     1     0     0     2
      1723.487528      475.144484      230.318593     1     0     0     0     6
       210.585802      364.855072      552.519711    12     2     0     0     4
       235.897848      444.649605      510.147666    12     0     0     0     8
       527.403276       96.506004      213.419957    14     1     0     0     8
       373.927989      200.193810      320.418232     8     1     0     0     7
       815.098283      347.895870      459.396312    23     1     0     0     2
       787.403276      107.555653      402.191767    16     1     0     0     6
      1160.360981      378.111687      152.272462    51     2     0     0     5
       649.056364       56.927124      596.033010     9     0     0     0     7
       201.083337      529.311616      554.328103    10     1     0     0     6
       743.496204      348.324024      340.526515    12     1     0     0     5
      1123.650835      161.243733      369.585161    35     1     0     0     4
        20.450800      239.851599      538.752524     6     0     0     0     8
      2007.050420      412.232564      553.820481     1     0     0     0     8
       422.430803      159.125270      204.607374    18     4     0     0     1
        58.073301      462.338209      174.254390     6     2     0     0     7
       345.918291      592.424911      580.580183    12     1     0     0     2
      1774.711205      363.704792      157.988981     1     0     0     0     7
       158.490800      141.058868      393.458699    12     0     0     0     8
      1059.816329      366.434971      416.018547    27     3     0     0     7
      2318.428136       61.639937      414.223470     1     0     0     0     4
       477.531748      102.969224      232.386074    10     0     0     0     8
       560.130871       15.626575      138.580465    15     0     0     0     5
      1040.673899      328.790955      183.084620    31     2     0     0     1
       393.956023      178.536872      417.865036    17     0     0     0     2
       328.712165      220.509550      377.974717    13     2     0     0     3
      2310.898104      526.097808      380.553010     1     0     0     0     6
      2294.135728      391.032546      456.733188     1     0     0     0     6
       798.940729      228.424821      482.893553    17     0     0     0     2
       520.282874      188.268912      524.854938    14     4     0     0     6
      1828.657882      239.605719      441.865818     1     0     0     0     7
       126.010797      466.609369      472.277756    10     2     0     0     7
       233.744389       19.741193      247.848444    10     0     0     0     6
        98.151883      227.935151      159.825590     7     1     0     0     5
       268.691054      352.410925      503.426697    13     2     0     0     6
      1210.876722       34.413492      269.324934     1     0     0     0     8
        73.435007      525.119306      458.464668    10     0     0     0     7
      1498.574872      422.627171      434.141338     1     0     0     0     7
       125.995668      441.485913      594.275901    13     2     0     0     6
      1613.877377      466.708856      141.940799     1     0     0     0     8
       898.915788      414.700786      395.433151    26     3     0     0     2
       172.597548      442.601393      584.759408    15     0     0     0     7
       641.535728       39.866872       43.644379    10     2     0     0     6
       161.131480      362.147625      172.390318    18     0     0     0     8
       213.643297      111.046612      195.636966    11     0     0     0     7
      1005.297437      279.204472       95.679507    20     2     0     0     3
        55.165800      478.268588      361.715366     8     0     0     0     5
       805.043291      259.957443      275.007323    19     3     0     0     7
       435.572086      374.934240      518.891759    16     1     0     0     1
       510.187803      465.756699      250.707573    12     1     0     0     1
       239.330639      527.034936      249.691367    10     1     0     0     2
      2334.875741      162.807567      295.637114     1     0     0     0     4
      1044.677048      151.591026      576.182189    35     0     0     0     3
       447.294024       64.748702      207.293249     8     2     0     0     1
       301.513292      143.994648       57.874106    18     0     0     0     1
       113.385838      483.557710      586.005597    11     0     0     0     3
       131.273145       18.074950       92.129146    10     0     0     0     2
       194.783718       91.048766      443.069648     6     0     0     0     4
       517.307212      133.405091      185.635005    17     3     0     0     5
       122.258224      481.093785      361.795416    12     3     0     0     8
       111.313303      359.645993      109.106688    11     0     0     0     5
      1841.119925       41.354054      243.370766     1     0     0     0     5
       953.988298      448.611828        4.957091    24     0     0     0     4
       318.698289      198.863297      372.466134    11     4     0     0     2
      1965.423243      129.330417      153.660105     1     0     0     0     8
       626.633317      107.873498      115.554530    16     0     0     0     8
      1162.340748        9.034417       10.933087    53     0     0     0     8
      1857.909474      391.162770      566.641871     1     0     0     0     2
        65.790874      501.436549      262.244447    10     0     0     0     6
        77.288372      164.425263      137.142609    11     0     0     0     6
      1965.162703       64.508881      571.236088     1     0     0     0     1
       161.972047      101.484883      101.665379    14     0     0     0     6
       528.518383       79.583436      168.924861    13     3     0     0     7
      2681.774681      316.269568      355.506578     1     0     0     0     3
      1784.060023      375.337918      576.226535     1     0     0     0     5
       520.237053      218.902777      499.299739    11     0     0     0     7
      1658.629625      586.909691      204.576565     1     0     0     0     7
       576.283281      256.478619      156.234385    18     1     0     0     8
       190.145799       78.282100      225.833790     6     2     0     0     1
       757.732939      314.614659      228.873485    11     0     0     0     7
       192.342649      427.526982      227.657000     8     3     0     0     3
       469.860796      588.610233      272.006519    15     0     0     0     6
       224.178300      593.427175      101.962360    11     2     0     0     3
       545.322951      389.101320      391.262288     6     0     0     0     8
       575.353288      147.794496       83.643438    22     2     0     0     5
       292.503313      480.208179      594.201899     6     2     0     0     5
       542.649288       91.967977      178.007995     6     0     0     0     4
       543.690813       21.061870      279.671268    19     3     0     0     2
       222.860378      207.280053      193.849242     7     1     0     0     6
        24.339799      111.746130      371.403501     9     0     0     0     7
      1017.436070      527.844805      536.644644    27     0     0     0     1
      1926.553812      316.259094      590.846127     1     0     0     0     7
      1954.062889      197.589257       99.799654     1     0     0     0     1
       112.425603      501.736751       50.805093     9     0     0     0     4
       148.175798      368.991333       75.974735     6     0     0     0     6
       204.118303       87.724237      409.105492    12     1     0     0     4
       293.297288       69.090995      482.834520    17     0     0     0     8
       187.713197      150.772829      179.735093    11     0     0     0     4
       174.565970      307.166231       63.756920     7     1     0     0     8
      1047.666868      357.111778      221.543867    22     1     0     0     2
       106.236242      445.377021      525.980980     9     0     0     0     1
       544.008317      268.374461      334.750642    12     1     0     0     3
        82.901184      475.973363       61.172116     7     0     0     0     2
       212.452059      191.107687      110.122475    15     0     0     0     7
      2105.933331      385.747192      140.009511     1     0     0     0     6
      1757.647225      228.939277      158.601455     1     0     0     0     3
      2505.316215      303.692954      528.949326     1     0     0     0     7
      2400.371825      238.054346      234.422890     1     0     0     0     4
       248.265794      375.473826      391.715404    10     2     0     0     4
        42.248300      298.757049       25.078474     9     0     0     0     7
       107.882303      346.714567      109.423324    18     2     0     0     6
      2368.409475      401.437957      557.737885     1     0     0     0     8
        65.968301      421.578620      142.599576     6     0     0     0     6
        52.916580      292.957063       46.830462    12     0     0     0     4
      1749.076282      276.335329      252.439649     1     0     0     0     4
       235.478671      477.982872      129.429916     8     2     0     0     2
       854.707228      332.590181      286.957217    16     1     0     0     8
      1736.310049       51.379344      309.475059     1     0     0     0     2
       176.721803      585.062222       23.221433     6     0     0     0     6
       134.595796      402.752026      406.762496    20     0     0     0     3
       106.319067      542.357784       74.173010    14     1     0     0     3
        54.003301      215.483860      525.605885    12     0     0     0     3
       171.148372      222.086217      370.606257    12     0     0     0     5
       182.531016       77.402642      404.660014    10     1     0     0     2
       114.949872      169.413075      510.046688     7     0     0     0     3
      2608.413685      111.809071      103.595605     1     0     0     0     2
       261.741324      517.935689       48.153631    10     1     0     0     8
       196.000795      231.482384      148.258739    14     2     0     0     7
       102.214248      331.883104       23.841608    18     2     0     0     6
        96.563303      422.174846      464.872303     8     0     0     0     8
       362.152994      305.862713      284.492636    13     6     0     0     1
       375.848001      542.836914      260.029671    12     2     0     0     7
       192.477800      264.812653      482.228803     9     0     0     0     7
       201.853303      499.883746      261.560881     8     2     0     0     3
       338.352725       19.761307       28.313765    11     2     0     0     5
       219.790717       61.461774      192.615926    12     2     0     0     6
      2630.515468      590.073039      411.332892     1     0     0     0     7
      2396.209429      381.208868      187.245482     1     0     0     0     1
       315.237904      374.545495       39.655334     5     0     0     0     2
      3147.823292       46.696271      171.406975     1     0     0     0     2
       156.058305      487.254050      236.236948    13     2     0     0     5
       204.612199      591.564569      158.572175    12     4     0     0     5
        51.765798      454.733958      494.542521    19     0     0     0     5
       152.597736      582.699923      401.446146    14     0     0     0     3
      1199.515943      329.001140      251.948099    37     3     0     0     8
       346.258287      547.454832      505.255628    18     3     0     0     2
      1403.433292      523.156110      349.279056     1     0     0     0     8
       261.805133      218.648768       53.875511    12     3     0     0     5
       330.770641      377.751812      507.133195     8     3     0     0     8
       125.311408      327.052232      446.016561    15     0     0     0     5
       211.236803      254.979223      156.216875    13     1     0     0     5
       630.595781      111.860069      577.025270    11     1     0     0     2
        60.645799      213.274960      256.199467    19     0     0     0     8
       109.273302      140.911685      141.714508    10     1     0     0     6
       231.168880      245.670822      349.439355     8     1     0     0     1
       117.724050      466.209506      437.564234    17     1     0     0     1
       244.674806      252.310401       93.873071    13     1     0     0     1
       261.480804      592.143163      429.963667    17     1     0     0     5
       287.374044      215.147036      434.337830     9     0     0     0     2