ITEM: TIMESTEP
0
ITEM: NUMBER OF ATOMS
        4512
ITEM: BOX BOUNDS pp pp pp
  0.0000000E+00   5000.00000000000     
  0.0000000E+00   600.000000000000     
  0.0000000E+00   600.000000000000     
ITEM: ATOMS x y z nV nH f3 f4 orient
       417.207352      240.319997      532.037268    16     1     0     0     1
       654.348228       62.341676      248.515230    14     1     0     0     1
        82.817222      114.722137      113.835039    29     0     0     0     2
       801.881136        1.405790      469.152525    23     0     0     0     5
       290.490800      513.658738       72.442535    10     0     0     0     4
        58.008298      158.917340      588.337366     6     0     0     0     8
       931.349019      256.599845      164.293384    34     1     0     0     1
      1869.296957      566.071002      483.639195     1     0     0     0     8
       123.924819      250.147096       83.437589    11     0     0     0     3
      1198.495535       47.354445      324.959456    41     0     0     0     6
        63.284374      345.190616       55.549958     6     0     0     0     6
       557.500810      534.815971        1.176978    10     1     0     0     6
      1256.856118      178.394380      331.851756    48     2     0     0     4
       175.974731      110.048292      436.212857     8     0     0     0     4
        54.644300      268.930791       53.354836     9     0     0     0     2
       952.633317      568.812658      279.284556    32     2     0     0     6
       360.587383      191.037383      407.203475    15     0     0     0     6
       217.959050      501.214909      148.114032    13     1     0     0     4
       393.956023      178.536872      417.865036    17     3     0     0     8
       217.032999      492.831896      288.592327    16     2     0     0     8
       111.300798      390.406820      466.214073    15     0     0     0     1
       212.004651      110.005960      498.458770    10     0     0     0     2
       233.745579      302.797837      106.139085    14     0     0     0     4
       262.893297      590.549350      490.876430    15     0     0     0     3
        58.053300      184.035222      162.940177     8     1     0     0     7
      1754.178151      530.275135      502.982443     1     0     0     0     7
       392.674539        0.689971      494.678479    14     1     0     0     5
       435.144792      145.714034      592.889699     8     1     0     0     8
       285.525804      461.266139      115.004608    11     0     0     0     2
        79.617729       18.991412      143.973016    15     0     0     0     5
      1076.665416      492.868019      328.281172    28     1     0     0     6
        93.207952      148.760222      401.255189     9     0     0     0     6
       678.068315      341.471278      457.806338    15     0     0     0     3
       288.934247      449.950389      235.827361     7     1     0     0     8
       185.368303      171.726278      323.672046     9     0     0     0     5
      1422.287451      547.865376      244.056651     1     0     0     0     3
       445.025091      563.808527       53.368923    13     1     0     0     6
        75.352006      177.378543      593.200606     7     2     0     0     1
       177.640767      457.577728       41.831516     9     2     0     0     8
      1570.368766      498.683446      318.495020    72     2     0     0     5
        48.125799      367.812039      128.485204    10     0     0     0     1
      2197.440189      331.294556      159.670053     1     0     0     0     8
       328.620805      234.892997      577.460701    13     1     0     0     2
      2053.249286      356.800400      416.693619     1     0     0     0     5
      1881.044336      461.246889      113.692692     1     0     0     0     1
       210.618303      135.471819      594.994327    17     1     0     0     8
       223.780794      363.879921       60.509569    14     0     0     0     2
      1761.631246       57.709643      299.979610     1     0     0     0     3
        85.707428      569.042707      494.660084    13     1     0     0     5
       359.631792      500.483450      278.217118     9     1     0     0     8
        36.549501      258.308292        2.430419    15     0     0     0     3
       827.827473      544.367675      169.526557    22     1     0     0     1
        68.613969       75.876317      578.829771    18     0     0     0     4
       277.814711      500.822458      225.389994    19     0     0     0     1
       806.211478      551.099930       11.701164    23     1     0     0     2
       135.592456      521.750363      562.233331    16     0     0     0     1
       412.555803       29.268231      336.136864    22     1     0     0     5
      1017.436070      527.844805      536.644644    27     4     0     0     7
      1841.894485       57.897357        6.858932     1     0     0     0     3
       349.545793      468.190262      560.141606    14     0     0     0     1
        97.063303      166.420648       27.357984    11     1     0     0     2
       136.122804      211.890363      192.996010     8     1     0     0     3
       112.933298      415.078561      433.650448    13     1     0     0     4
       397.823289      277.360592      170.771595     6     2     0     0     4
       441.400804      238.609407      260.172231    24     1     0     0     1
       447.936313      113.324543       42.505185    14     0     0     0     1
       527.328975      453.275617      598.557153    16     0     0     0     5
      1981.671607      155.466616      237.861213     1     0     0     0     1
       647.365800      155.062939       71.113812    11     3     0     0     4
       150.225801      436.254034       29.427370     9     0     0     0     4
       355.673296      433.737639       96.261275    12     0     0     0     1
       103.497797      585.133809      521.695544     9     0     0     0     1
       806.933587      486.141628      336.417112    27     0     0     0     3
       153.540672      272.881835      500.402714     9     1     0     0     1
       740.425798      472.664809      276.268626    21     4     0     0     8
      2919.732303      593.788562       68.587729     1     0     0     0     3
        83.273860      157.493549        2.069980    15     0     0     0     4
       149.870302       40.162520      235.616741    11     1     0     0     7
        51.765798      454.733958      494.542521    19     0     0     0     7
      2010.100877      448.683413      493.244042     1     0     0     0     5
        75.558801      311.483780       43.838022    11     0     0     0     1
      1853.380795      232.793181      366.093111     1     0     0     0     6
       256.878297      176.187928      545.960035    20     1     0     0     8
       291.813798      407.140020      546.223780    12     1     0     0     6
      1041.212846      276.007644      559.098564    41     1     0     0     4
       121.530347      594.741072      254.219579    11     0     0     0     5
      3014.985548      215.883760      524.986036     1     0     0     0     7
      2715.093179      288.152472      330.170983     1     0     0     0     2
        49.017801      259.068334      473.563256     9     0     0     0     8
      1629.282128      211.664606       16.711336     1     0     0     0     6
        69.787709      348.548261      529.964650    14     0     0     0     4
      1255.188817       37.578642      291.480982     1     0     0     0     1
        20.555576      427.533078      400.496444     9     0     0     0     7
       475.060808      404.295547       84.507460    15     1     0     0     8
       548.220725      321.681246      442.874980    14     0     0     0     6
        99.660799      515.146894      161.186177    17     0     0     0     8
       153.268297      298.060396      355.038804    20     0     0     0     5
      1976.094430      599.975043      221.363922     1     0     0     0     1
       186.123165      529.209749      479.787783    16     0     0     0     4
       319.683794      542.817706      270.693224    11     1     0     0     2
      1773.498676      553.969229      254.522370     1     0     0     0     1
       376.742296      577.041148      437.903856    11     0     0     0     6
      2158.041485       96.639086      358.926306     1     0     0     0     2
       284.847700      354.235505      460.853860    11     1     0     0     2
       250.768297      556.598442      132.384248     9     0     0     0     2
        52.177543      222.164433      155.527080    10     0     0     0     2
       376.885789      174.534815      271.958701     9     1     0     0     1
        46.005949      267.522721      454.927615    14     0     0     0     5
       447.170139       67.762136      570.278382    16     2     0     0     3
       542.649288       91.967977      178.007995     6     0     0     0     7
       390.303442      392.994172      569.391260    17     2     0     0     2
       577.660557      563.377817      181.463866    15     0     0     0     6
       675.058915      192.558512      323.811638    10     1     0     0     5
        96.057802      451.538309      469.284725     9     0     0     0     2
       238.739541      494.877070      473.298805    12     0     0     0     7
       204.083370      359.127934      334.058772     7     1     0     0     1
       158.668248      223.615715      396.333333     9     1     0     0     3
      1019.250900      185.010539      504.712606    37     4     0     0     3
       825.839281      302.692656      220.548676    16     1     0     0     8
       427.188704      299.641259      108.689892     8     1     0     0     5
       134.152994      267.041284      399.628546    10     0     0     0     7
       172.664928      583.344172       56.137886    20     1     0     0     3
       761.487407      351.562825       16.664768    25     3     0     0     1
       202.748292      199.819327      438.883873    14     1     0     0     2
       132.115800      125.656071      578.537443    10     0     0     0     7
       557.409797      469.136008      208.981493    12     2     0     0     5
      2707.670962       78.163599       23.208595     1     0     0     0     4
      1977.131543      373.571511      521.797858     1     0     0     0     3
       533.081883      218.101032      541.543980    11     2     0     0     1
       446.439381      269.736945      362.190067    12     0     0     0     4
       281.894199       82.604537       23.702067    11     0     0     0     3
       113.883302      115.324671      118.424430     9     0     0     0     2
        42.115098      151.763412      410.498475     6     0     0     0     2
       913.638322      277.270105      213.633194    34     2     0     0     7
       586.259294      427.630511      320.364765     8     1     0     0     2
       228.177797      535.630320      380.950140    10     0     0     0     4
        72.383302        0.729305      284.224217    13     0     0     0     4
       496.053386       48.840644      401.229615    10     0     0     0     3
      1748.899927      457.871068      227.811963     1     0     0     0     6
       509.188310       22.502364      417.558807     8     1     0     0     7
      2605.657605      592.829427      114.974202     1     0     0     0     1
       134.348299       16.378360       62.123113    12     0     0     0     4
      1101.480791      391.850474      237.021743    26     1     0     0     7
       514.778448        2.039422      542.220693    14     1     0     0     8
      1720.628855       51.209651      282.014902     1     0     0     0     4
       517.883389      260.709305      300.897845    14     0     0     0     5
       767.738629      314.852997      137.713158    15     0     0     0     3
      1874.640433      453.292387       18.985496     1     0     0     0     4
       455.513604      417.423064       25.675145    13     2     0     0     2
       422.853288       69.515889       52.400030    14     1     0     0     7
       114.738298      271.352877      229.685135    12     1     0     0     7
       895.318021      318.246729      399.891011    37     1     0     0     2
       324.241027      496.148073       52.272258    18     0     0     0     7
       126.117799      416.877578      325.211336    11     0     0     0     3
       363.085802      154.172207      113.271243    19     3     0     0     8
       684.885820      521.458108      575.698743    10     0     0     0     1
       643.618076      352.247930      528.130375    19     0     0     0     2
       334.502683      344.524995      255.724891     9     0     0     0     4
       576.283281      256.478619      156.234385    18     2     0     0     7
       336.338304      273.751104        5.560883     8     0     0     0     4
       102.518297       97.057825      567.995578    18     1     0     0     4
        67.767801      309.559928      493.498130     7     0     0     0     5
       652.310808      348.404786      397.527465    12     0     0     0     8
      2081.794931      116.146828      319.981526     1     0     0     0     6
       840.173296      200.768715      558.636456    28     1     0     0     4
       116.643148      334.595270      522.078071    18     0     0     0     5
        50.802801       10.903073      302.212756     6     0     0     0     1
       601.142563      144.608483      394.723755     8     0     0     0     7
       353.986124      273.793670      377.958800    14     0     0     0     5
       471.355791      250.364076      574.684632    16     2     0     0     7
      1426.184801      534.892143      409.205532    33     2     0     0     8
       384.033221      266.667082      274.271551    15     0     0     0     5
       354.047819      559.613046      141.213519     8     0     0     0     4
       520.237053      218.902777      499.299739    11     1     0     0     3
       224.274797      318.772053      253.669050    15     0     0     0     3
       193.593294        3.947330      345.306945    17     0     0     0     4
      1954.328564      171.316544      378.446903     1     0     0     0     3
       759.029142      207.554952      311.975804    21     0     0     0     5
       223.359804       68.802211       34.402002    13     1     0     0     6
       165.788301      311.936281      495.384419    18     1     0     0     8
       126.922569      258.494866      319.185844     9     0     0     0     3
        71.225297      293.836279      221.937761    10     0     0     0     4
        57.415800      236.725935      501.867919     6     0     0     0     6
       131.575729      251.559782      317.359680    15     0     0     0     6
      1734.963953      394.644497      110.467442     1     0     0     0     3
      2284.233347      162.807567      295.637114     1     0     0     0     7
      1611.654411      300.810297      547.841514     1     0     0     0     7
       242.930299      235.545350       98.326370     7     1     0     0     4
        35.738225      511.287006      325.447524     8     1     0     0     4
       115.514963      367.524547      365.654796     5     0     0     0     6
      1679.378421      567.875851      564.565005     1     0     0     0     5
       607.698320      582.342496      243.483707    16     0     0     0     3
       137.973299      473.564098      348.559695    13     1     0     0     1
        93.734527      244.588568      271.340649    17     0     0     0     2
        36.715801      276.328052      499.095595    10     0     0     0     7
       329.512713      253.435176      170.980774     9     1     0     0     6
      2421.985314      302.870402      411.158951     1     0     0     0     2
      2686.070963      517.721721      486.924401     1     0     0     0     1
      2340.584183       80.630835      420.553770     1     0     0     0     2
      2426.161746      515.176078      252.126154     1     0     0     0     3
      2125.565992      198.213710      491.741260     1     0     0     0     7
      2495.935320      266.955014      154.493959     1     0     0     0     5
       282.863298      316.362634      354.521452    20     0     0     0     2
        82.903228      457.820676      105.057368     9     0     0     0     1
      1795.698968      304.118646      330.747002     1     0     0     0     4
       128.644201      142.095934      238.615843    15     0     0     0     3
       281.763292      599.696970      582.200568    11     0     0     0     5
      1129.758745      174.188086      576.183533    39     0     0     0     4
        65.618299      446.086133      489.516980    12     0     0     0     6
      1893.808711       62.979064      479.565026     1     0     0     0     3
       255.610796      163.575282      180.455309    19     0     0     0     5
       308.874803      372.690756      386.452238    10     0     0     0     3
       985.415543      183.071691      514.329791    29     0     0     0     2
      1844.026921      256.815122      223.951271     1     0     0     0     6
        51.864744      289.377466      228.982664     6     0     0     0     4
       327.532562      493.273314      247.319107    26     3     0     0     2
       275.640496      256.596664       67.554809    10     0     0     0     8
      1217.573405      590.457109      530.267787    37     1     0     0     5
       125.285799      311.041985      107.090288     7     0     0     0     8
       269.280407      565.829106      443.081851    13     2     0     0     4
       913.290788       42.366917       56.385877    32     1     0     0     5
       332.977569       28.648450      378.422911     8     0     0     0     5
        83.100713      309.601725      274.292904    15     0     0     0     7
       162.255800      504.811432      320.317998    24     1     0     0     3
       486.155809       14.298699       41.459112    13     1     0     0     7
       182.733438       15.490428      154.535809     7     0     0     0     5
       100.505375       16.885693       90.817993    14     0     0     0     2
        57.517132       28.523972       86.521458     9     0     0     0     1
       230.540803      486.238041      229.255836    18     0     0     0     4
       608.340665        9.043853      462.737368    16     1     0     0     3
      1720.864532       68.298848      269.591259     1     0     0     0     4
        45.940801      189.535447      362.852951     7     0     0     0     2
        31.243301       22.594501      530.644025     6     0     0     0     3
      2234.860846       64.661672       91.085512     1     0     0     0     4
        67.840799      425.415405       56.738657    14     0     0     0     2
       560.630815      343.433043      241.760973    26     1     0     0     8
       552.331158      440.276490      280.593332    12     2     0     0     3
       167.194548      599.231582      196.664421    14     1     0     0     8
       315.237904      374.545495       39.655334     5     1     0     0     8
      3212.888657      499.423527      277.111449     1     0     0     0     1
      2582.216333      280.391762      308.718025     1     0     0     0     3
       565.771112      308.595946      202.114124    19     1     0     0     4
       854.707228      332.590181      286.957217    16     0     0     0     1
      1808.838732      160.783075      132.930140     1     0     0     0     4
       123.478303       69.064057      269.287035    18     0     0     0     1
      1020.093228       72.655108      239.917228    33     2     0     0     8
       544.435808      423.030191       62.900434    21     1     0     0     8
       244.674806      252.310401       93.873071    13     1     0     0     7
       251.360881      311.406173      553.158601    10     0     0     0     8
       902.320817      354.744846      327.188228    19     0     0     0     7
       200.596924      456.761942      420.862161    16     0     0     0     4
       572.440359      441.398332      209.613776    15     0     0     0     2
      1786.712894      200.668564      591.143823     1     0     0     0     5
       596.658397      464.364678      523.813931    18     2     0     0     1
       193.720792      133.492878      404.194552     8     0     0     0     8
       960.405778      166.327657       68.343759    24     2     0     0     1
       106.705797      575.395264      125.743605    15     0     0     0     8
       232.938345      539.395812      120.321321     6     0     0     0     1
       314.137697      267.500459      121.862154     8     0     0     0     1
       336.102810      193.845117       10.869413    12     0     0     0     5
       168.281297      313.464065      401.210566    18     0     0     0     5
        15.740800      471.527774       97.314896     5     0     0     0     6
       280.420567      542.684640      322.263184    15     0     0     0     3
        78.225801      211.167519      125.503550    11     0     0     0     8
      2325.979346       92.097227      401.802296     1     0     0     0     3
       163.359804      466.930659      145.793560    16     1     0     0     7
       182.644457      222.220441      497.529637     8     0     0     0     1
       510.187803      465.756699      250.707573    12     0     0     0     7
       473.930370      189.462244      296.487130    17     1     0     0     2
       169.400842      247.459265      360.761750    10     1     0     0     7
       748.835771      420.601177      526.025860    12     1     0     0     6
       421.566734      419.949864      183.367881    11     0     0     0     7
       137.834306      556.886301        2.510622    18     0     0     0     1
       628.719102      111.564799      412.412134    14     0     0     0     2
      1739.743082      400.261292      505.628809     1     0     0     0     2
       442.400804      416.670106      125.292859    23     1     0     0     5
      1915.046820      225.550755      252.343911     1     0     0     0     7
      1895.987988      415.724431      163.616954     1     0     0     0     7
       699.898982      356.045177      200.814301    10     0     0     0     4
       689.923296      100.475312      304.341581    17     1     0     0     7
      2507.981703      282.832652      233.275913     1     0     0     0     7
       262.821137      556.647800      222.732627    16     1     0     0     8
        36.183799      597.870201      317.317910    10     0     0     0     5
       627.446553      319.629355      565.906295     9     0     0     0     4
        25.795801       86.314264      288.005575    10     0     0     0     6
      2549.713714      126.602675      398.312937     1     0     0     0     2
      1626.983285      422.271867       34.472438     1     0     0     0     6
      2152.321736      154.833282      489.676763     1     0     0     0     4
       406.125810      541.345054       53.657102    16     2     0     0     6
      1837.877780      388.587688      513.270803     1     0     0     0     5
       212.361406      353.573257      494.859859    10     1     0     0     2
       828.118562      388.875957      101.059477    28     2     0     0     1
      1257.259985      199.229558      370.719388    32     1     0     0     1
       668.671473       85.665541      289.003497    12     0     0     0     8
       435.465439      106.505264      229.180257    10     0     0     0     8
       319.115432       41.034731      540.408463    14     1     0     0     5
       528.264198       90.156302       58.247873    20     0     0     0     5
       327.838857      189.627764      266.478725    18     3     0     0     4
       390.433305      237.714712      163.292268    12     0     0     0     8
       326.283311      225.884091       58.695023     9     1     0     0     5
       376.497595      148.016003      320.091229    12     0     0     0     1
       110.522162      100.994493      525.004330     5     0     0     0     7
       496.427791      504.801176       78.835981    17     1     0     0     5
       369.210683      365.796306      586.887791    14     1     0     0     5
      2239.049607      340.952858      189.365815     1     0     0     0     4
      2263.399452      286.687068       81.873789     1     0     0     0     1
       539.424941      241.958834      519.916704    14     2     0     0     2
       150.048296      374.240971       41.111422     8     0     0     0     4
        82.839485      397.353491        0.072855    15     0     0     0     6
       870.487854      556.034893      504.274464    13     1     0     0     1
       317.963304      343.406562      540.429520     9     0     0     0     6
       395.360796      435.048918      117.397210    18     0     0     0     7
       345.260075      249.223641      128.527052    11     1     0     0     3
       212.452059      191.107687      110.122475    15     1     0     0     8
       421.608640      480.015097      196.071483    13     1     0     0     1
       171.138795       46.111493      340.496041     8     2     0     0     2
       321.508199       66.734111      322.928405    18     1     0     0     7
      1794.463005      372.988063      591.653538     1     0     0     0     4
       190.960881      546.007538      149.917777     9     0     0     0     3
      2452.483800      347.226157      360.080282     1     0     0     0     3
      2149.267367      335.725250      417.588072     1     0     0     0     8
       167.625795      113.584129      227.781909    14     0     0     0     1
        43.612485      206.295195      356.960437    11     1     0     0     7
      1391.787366       20.221321      154.802645    53     0     0     0     2
      2323.195018      395.538783      324.715369     1     0     0     0     4
        94.881948      143.929972      300.421014    17     1     0     0     3
      1155.087449      582.794583      244.322599    39     3     0     0     3
      1945.745667      336.634033      376.536976     1     0     0     0     6
       375.848001      542.836914      260.029671    12     1     0     0     4
      2071.473797      565.269179      591.576596     1     0     0     0     1
      1817.239312       99.360351      232.727619     1     0     0     0     8
       176.721803      585.062222       23.221433     6     0     0     0     5
        99.855798       64.017213      170.555477     9     0     0     0     6
      2274.333920      123.194253      164.246685     1     0     0     0     7
       265.394304        4.204761       64.126540    18     0     0     0     6
       470.653306      442.630190      307.499974    11     1     0     0     1
       176.221234      224.236040       61.021136    11     0     0     0     3
       102.214248      331.883104       23.841608    18     0     0     0     5
      2361.586684       27.944522      584.116702     1     0     0     0     1
       217.238298      315.118326      456.590016    15     0     0     0     1
       589.253313       20.934544      264.625294    19     3     0     0     1
       411.183294       69.188405      107.434588    15     0     0     0     5
       718.623484      505.666899      381.443091    24     2     0     0     5
        74.174373      316.419530       64.817447    12     0     0     0     1
        41.013299      570.299432      283.511918     9     0     0     0     5
        94.835802      274.494865      586.133163    11     0     0     0     8
      2109.301190      474.263026      338.956095     1     0     0     0     4
        22.870800      114.151325      515.206377     6     0     0     0     3
       401.890794      456.944476       62.684629     9     0     0     0     4
      2391.245867      549.482176      411.497100     1     0     0     0     7
      2439.982920        3.657727      486.123311     1     0     0     0     8
       700.023271      557.349362      120.335295    34     1     0     0     4
      2591.514145      404.780142      244.814124     1     0     0     0     8
       243.150804      331.129346      287.443164     8     0     0     0     4
       169.192519      297.495655      534.345305     8     0     0     0     7
       106.555952      513.447500       24.403239    13     0     0     0     7
        78.921574      381.923377      418.681473    12     0     0     0     5
       115.834922      364.950079      260.050217     6     0     0     0     2
       153.435792      302.283520      467.811281    12     1     0     0     6
      1557.414500      349.781648      287.432775     1     0     0     0     7
       558.793097      294.389452      288.998922    10     0     0     0     2
       518.193803      133.110605      333.290671    18     0     0     0     3
       246.648621      138.428097      418.405224    17     2     0     0     6
       212.368303      482.917301      405.691598    10     2     0     0     2
       720.310863      466.559094      378.869510    19     0     0     0     7
       369.643297      457.391204      409.589933     8     0     0     0     8
       447.513292      347.780979      234.301945    16     0     0     0     4
       785.633317      302.872058      355.432801    15     0     0     0     3
      1699.987256      540.186332      279.571999     1     0     0     0     7
       444.326135      578.263312       15.675983    11     0     0     0     2
        51.063299      243.790512      288.518473    10     0     0     0     8
       173.635805      492.624307        4.494361     7     2     0     0     6