ITEM: TIMESTEP
0
ITEM: NUMBER OF ATOMS
        4509
ITEM: BOX BOUNDS pp pp pp
  0.0000000E+00   5000.00000000000     
  0.0000000E+00   600.000000000000     
  0.0000000E+00   600.000000000000     
ITEM: ATOMS x y z nV nH f3 f4 orient
       828.843223      541.833090       93.964503    21     0     0     0     4
       770.873308      158.692192      424.306537    13     1     0     0     8
       309.415788       25.460062      293.648084    10     1     0     0     2
       159.446170      528.673678      421.751004     9     0     0     0     6
        89.628297      136.607828      326.467195    17     0     0     0     6
      2466.557909      318.582553      157.516720     1     0     0     0     5
      1878.579014      584.946593      381.403071     1     0     0     0     5
       209.553457      474.274128      186.982413     8     0     0     0     5
      1711.513719      273.133579      355.501463     1     0     0     0     2
      1426.184801      534.892143      409.205532    33     3     0     0     3
       260.945802      333.105568      140.170770     8     0     0     0     1
      1057.100786      473.700384      528.530909    30     0     0     0     4
       494.175798      163.712313      381.307886    18     1     0     0     7
       166.523372      175.657745      314.969497    15     0     0     0     2
        42.115098      151.763412      410.498475     6     0     0     0     2
       902.755699      177.139776      555.390510    24     1     0     0     8
       700.633317      402.159268      401.756384    15     0     0     0     2
       480.948864       68.449008      560.231035    13     2     0     0     3
       364.230791       91.962884      458.892207    12     1     0     0     5
       220.111811      281.956967      369.176572    13     1     0     0     5
       142.138307      444.288891      534.879262     9     0     0     0     5
       695.303889      430.563044      467.440741    13     1     0     0     4
      1597.621418      565.876401      411.348937     1     0     0     0     2
       390.628474      490.806903      208.657836     8     0     0     0     1
       121.973149      176.893952      151.343361     6     1     0     0     5
      1549.573555      298.379305      265.140565     1     0     0     0     4
       272.934715       29.723311      224.805500    17     1     0     0     8
       454.955797      420.042425      226.268458    19     0     0     0     5
       362.370805      177.224090       63.909800    13     1     0     0     3
       979.653398      207.058466      102.350873    26     3     0     0     2
       158.030036      396.747320      296.086424     8     1     0     0     2
      1680.242387       44.453950      480.208759     1     0     0     0     6
        26.190799      506.147763      252.298850    10     0     0     0     2
      1114.715202       10.023053      254.722049    31     0     0     0     5
      2193.283619      373.297948      345.220747     1     0     0     0     4
       339.363786      103.156964       46.798503     7     0     0     0     1
       100.150875      493.760373      285.152547     6     0     0     0     3
       828.118562      388.875957      101.059477    28     0     0     0     7
       372.243303       64.462984      404.527678    10     1     0     0     1
       136.030794      472.989603      297.446467     7     0     0     0     7
       197.338147      172.560983      260.983197    11     0     0     0     4
      2463.225208      165.443098      481.860765     1     0     0     0     5
       378.125741      308.547348      410.370104     9     3     0     0     3
      1648.872960       62.994584       68.693159     1     0     0     0     3
        52.073319      427.709096       29.942125     7     0     0     0     1
      1621.369254      232.238078       11.963612     1     0     0     0     4
       287.374044      215.147036      434.337830     9     0     0     0     1
      1747.006141      248.223112      161.188386     1     0     0     0     3
       205.409303      571.859139       10.430519    13     1     0     0     7
       166.910869      568.394299      323.277859    13     0     0     0     8
       120.060800      128.649754      500.875011    14     0     0     0     7
       181.983293      371.808121      462.561063    15     0     0     0     1
       427.820787      246.284374      132.331705    16     1     0     0     2
       474.776399      546.016568      343.556853    11     1     0     0     5
       703.517530      307.936709      231.995078    20     1     0     0     1
      1205.011017      569.956446      180.989093    39     0     0     0     5
       567.303300      563.553107      472.627725    14     1     0     0     3
       284.847700      354.235505      460.853860    11     0     0     0     8
       388.466000      379.680822      285.899142    11     0     0     0     3
       255.610796      163.575282      180.455309    19     0     0     0     1
       877.738298      295.518854       54.173795    30     1     0     0     6
       373.766442       28.207010      197.066830    15     0     0     0     6
       888.163917      470.321240      436.072324     9     1     0     0     3
       122.880800      357.931565      416.125669    11     0     0     0     1
       421.790788      526.527979      534.161363    10     0     0     0     2
      2735.347948      228.422767      457.713950     1     0     0     0     1
       324.241027      496.148073       52.272258    18     0     0     0     2
      1673.096713      436.296283      219.852450     1     0     0     0     1
        69.651121      329.486445      363.625500     8     0     0     0     8
        77.388874      495.557144      396.703742     9     0     0     0     5
       484.275804      223.477602       71.416265    10     1     0     0     2
       118.597836       10.058717      476.203637    12     1     0     0     4
       829.583385      571.591566      564.648596    16     2     0     0     2
       421.190554       98.824812      544.302554     6     1     0     0     7
       183.767376      269.516306      360.948534     8     0     0     0     1
      2437.155884      206.524040      249.534829     1     0     0     0     2
       199.530794      466.434156      264.162878    10     0     0     0     4
       825.540124      512.988665      441.053891    21     3     0     0     6
       533.363298      566.786130      144.633176    20     0     0     0     6
      1550.463245      567.688233        3.434742     1     0     0     0     2
       453.035814      202.028573      242.653346    20     0     0     0     2
      1873.735222      350.015825      588.797918     1     0     0     0     6
      2059.701582      131.650128      439.728986     1     0     0     0     2
        93.734527      244.588568      271.340649    17     0     0     0     5
        57.319708      593.950336      105.289674     6     0     0     0     6
        43.597208      545.525888      344.436530     6     0     0     0     6
      2111.643380       37.304942      310.676967     1     0     0     0     1
      1530.273563      258.932193       26.068304     1     0     0     0     2
       380.780637       53.669366      399.961137    11     0     0     0     4
       337.405691      565.496641       77.955355    13     1     0     0     4
       348.543047      442.384127      255.822287     9     0     0     0     8
       271.807316      171.267095      565.875332     7     0     0     0     4
       323.505815      459.511329      401.868702    15     0     0     0     5
       347.045305      367.087823      549.595746    10     1     0     0     6
        39.334503      207.097144      557.241308     6     0     0     0     5
       150.168306      173.939680      498.806786    19     1     0     0     4
       368.677219      367.004680      415.957623    14     0     0     0     4
       183.988058       12.730639      247.870214    15     0     0     0     5
       149.374394      295.378311      245.123740     8     0     0     0     1
       287.205797       79.562705       55.959127    13     0     0     0     1
       760.900774      253.348152      352.252235     9     2     0     0     6
        28.596799      116.628884        8.129729     9     0     0     0     2
       110.920801      532.827715      303.984776     9     0     0     0     2
        71.435358      327.223714      149.072719     9     0     0     0     8
      1812.556583      306.293797      472.123858     1     0     0     0     8
      1008.907421      353.921401      296.945741    21     0     0     0     6
        60.817370      175.455269      301.028119     6     0     0     0     8
       470.223141      599.956211      572.643955    11     0     0     0     4
       119.615800       92.810470      329.446009    13     1     0     0     2
       843.928472      255.154903      373.370218    15     0     0     0     7
       551.155778      271.535884      173.145269    17     2     0     0     3
       193.808219      342.560958      515.584021    13     1     0     0     4
       284.441916      292.104718      483.783816    11     1     0     0     5
       467.248308      488.277682      239.294431    18     0     0     0     3
      1160.429712       30.127914      249.309281    44     0     0     0     7
       415.550451       16.464359      224.829081    17     0     0     0     3
       201.895761      555.393810      337.112770     9     1     0     0     5
        50.773547       82.931157      330.131357     8     0     0     0     8
       357.408614      134.191760       58.597235     8     1     0     0     7
      2198.490766      520.121204       79.505458     1     0     0     0     1
       559.387431      101.991257      288.045310    16     0     0     0     4
       126.010797      466.609369      472.277756    10     0     0     0     8
       211.236803      254.979223      156.216875    13     0     0     0     1
       352.635734      547.954310      556.970984     9     1     0     0     1
       400.160534      393.127071      383.966611    13     1     0     0     6
      1906.367606      577.651983      531.499870     1     0     0     0     4
      2620.134520      271.249379      254.471522     1     0     0     0     7
      1705.913794      278.465355       66.537184     1     0     0     0     1
       466.605564      478.468466      113.844959    29     0     0     0     6
       388.116807       95.313076      294.867136    12     2     0     0     1
       153.108726      273.742507       88.885255    13     1     0     0     2
       125.181802      435.132709      208.137027    13     1     0     0     4
       139.308496       99.708753      169.426930    10     1     0     0     3
       396.043268      213.569481      257.952685     8     0     0     0     3
       607.138443      284.841340      321.086944    13     2     0     0     2
       282.024896      240.523790      386.576043    18     1     0     0     3
       411.645063      327.404618      533.689434     9     0     0     0     8
      1356.287150      493.598144      566.096725    55     1     0     0     3
        81.039812      281.811435      208.399829    15     0     0     0     4
      1005.333606      184.217788      425.461975    21     1     0     0     4
      2107.996375      258.915404      285.517679     1     0     0     0     1
       289.093450      109.441326      376.953057    12     2     0     0     8
       194.471818      429.095272      544.213365     5     0     0     0     3
       833.025896      247.867090      276.618011    14     1     0     0     7
       473.987291       71.900993      387.745365    23     0     0     0     2
       131.616800      577.799402      183.789381     9     1     0     0     5
      1561.487460      404.397161      588.105056     1     0     0     0     1
      1861.408263      567.173149      570.992116     1     0     0     0     6
       512.875810      149.116131        8.210150    10     0     0     0     4
        98.984300       97.381460       65.366255    16     0     0     0     8
        44.601800      163.028576      502.024829    11     0     0     0     8
       276.308909      368.681853      348.894787    14     0     0     0     7
       175.997074      250.131539      323.330419    17     0     0     0     4
       560.630815      541.925519      570.376686    17     0     0     0     3
       646.554826      113.199799       29.928608     6     2     0     0     5
       347.715806      170.455955      417.894459    15     0     0     0     4
       210.198602      422.936192      533.232970    14     0     0     0     1
       130.285588      578.475332      431.884523    17     0     0     0     4
       411.448866      435.614828       49.305248    12     2     0     0     4
        77.288372      164.425263      137.142609    11     0     0     0     1
      1936.605846      101.365392       96.530255     1     0     0     0     3
       236.338672      288.676648      153.818015     9     0     0     0     3
       327.187681      447.229092      123.014388    20     0     0     0     8
      1960.865436      560.673475      272.298997     1     0     0     0     1
       442.385789      170.746054      465.389103    13     1     0     0     5
        76.857946       73.570319      115.957817     6     0     0     0     4
        39.286431       14.242366      337.097274     7     0     0     0     5
       212.833923      340.143660      162.543546    10     0     0     0     4
      1708.836215      445.257461      154.119907     1     0     0     0     5
       250.082318      359.582445      471.209025    19     1     0     0     8
       422.430803      159.125270      204.607374    18     0     0     0     1
      2252.194425      217.652568      565.605387     1     0     0     0     6
      1354.373472      527.903834      335.035883     1     0     0     0     1
       664.463274      393.907814      443.799160    12     1     0     0     4
       854.707228      332.590181      286.957217    16     0     0     0     6
       222.633898      161.502793      362.929235    14     0     0     0     8
       297.845647      473.483404      292.498344    10     1     0     0     3
       654.348228       62.341676      248.515230    14     1     0     0     6
        36.880800      293.569453      570.477250    12     0     0     0     5
       149.937782      414.519913      112.016410    10     0     0     0     3
        49.058301      348.230167      287.119804     9     0     0     0     6
       336.303386      350.569861      561.865583    11     1     0     0     3
       250.292299      237.097885      145.411440    14     0     0     0     7
       578.080827      568.297341      564.770520    15     0     0     0     1
      1874.471889      273.219967      359.765024     1     0     0     0     5
      2176.795255        2.519552      571.544643     1     0     0     0     2
      1560.203075      591.121134      366.652566     1     0     0     0     4
       336.150718      543.835080      320.821205    13     1     0     0     1
      2180.653173       64.402575       79.896209     1     0     0     0     4
       226.637229      494.361233      523.040697     6     0     0     0     7
      1785.350641       38.309289      523.916551     1     0     0     0     7
        40.048299      116.416698       94.158721    12     0     0     0     5
       992.951913      448.747624      157.175642    26     2     0     0     1
       148.643297      391.215459      518.557231    10     0     0     0     2
      1843.268068       19.902190      355.267497     1     0     0     0     7
        87.581023      319.099673      182.402909    15     0     0     0     3
       462.443371       78.223344       23.742958     9     1     0     0     4
      2511.039069      364.634481      374.323455     1     0     0     0     5
       356.514787      328.676580       58.753751    14     0     0     0     6
      2385.116345      376.029436      458.029147     1     0     0     0     7
      2410.410693      522.135773      144.805874     1     0     0     0     8
       549.048296      167.735427      578.964161    10     0     0     0     5
      2021.869830      455.718505      216.519592     1     0     0     0     2
        75.558801      311.483780       43.838022    11     0     0     0     2
      2175.499529      292.310933      539.249191     1     0     0     0     3
      1002.533281      407.286687      387.273650    38     0     0     0     6
       381.750952      585.009318      549.024543    12     0     0     0     3
       265.394304        4.204761       64.126540    18     1     0     0     3
      1357.632282       45.822173      280.519524    45     2     0     0     6
      2053.860026      319.433463       20.179265     1     0     0     0     5
       714.362916      411.002189      196.547744    12     0     0     0     4
       599.133091      181.212708      137.320131    19     1     0     0     7
        58.824800      496.416298      413.508489    12     0     0     0     8
      2309.725375      481.301546       93.787850     1     0     0     0     2
        35.055875      275.789281      268.281158     7     0     0     0     8
       951.991990      104.948520      282.855332    23     0     0     0     1
       235.478671      477.982872      129.429916     8     0     0     0     2
       115.514963      367.524547      365.654796     5     0     0     0     5
       549.751148      176.881593      330.938764    15     0     0     0     6
       164.740800      186.674473      145.439415     9     0     0     0     4
       260.133302      222.446241      515.430701    13     2     0     0     5
       224.274797      318.772053      253.669050    15     0     0     0     7
       577.660557      563.377817      181.463866    15     0     0     0     6
        64.807030      556.370850      181.602362    10     0     0     0     2
       118.233710       93.969748      199.628577    15     0     0     0     8
       120.884568      282.777091      351.450181     8     0     0     0     1
       442.045793      488.041947      504.355676    12     1     0     0     6
       212.683305      227.819999      268.681489    17     0     0     0     8
       211.625795      539.943033       75.227491    11     0     0     0     2
        92.368303      597.903605      506.976387    12     0     0     0     1
       646.305858       63.286081      200.914036    19     2     0     0     2
      1289.315324      599.034030      572.627953     1     0     0     0     6
       316.232510       26.494415      205.501018    16     1     0     0     5
        39.568972       88.287227      506.854216     6     0     0     0     3
       150.669137       28.285752      562.446098    14     1     0     0     1
       794.992042       33.418064      341.153836    19     0     0     0     6
       457.745579      236.371691      581.292633    14     1     0     0     2
       307.947801      149.957401      323.686301    14     2     0     0     8
        37.783300      371.995303      109.620846    13     0     0     0     6
      2539.638409      231.724046      148.963850     1     0     0     0     7
       898.423296      291.212638        3.373150    31     1     0     0     6
        99.315797       93.806239      463.580493    18     0     0     0     3
       546.608293      540.568893      469.707818    10     0     0     0     4
      2281.606496      151.114474       12.021137     1     0     0     0     3
       176.721803      585.062222       23.221433     6     0     0     0     6
        70.168298      275.481471      327.238430    17     0     0     0     8
       407.932993      190.174786      510.720165    11     0     0     0     7
        85.984985      190.883295      412.654298     7     0     0     0     8
       393.956023      178.536872      417.865036    17     0     0     0     6
       656.875921      369.766591      333.545010    20     2     0     0     6
      1132.701635      368.713346       30.241070    36     0     0     0     1
       637.085771      564.552923      159.638610    16     2     0     0     7
      2075.997505      203.741126      172.734661     1     0     0     0     2
       402.850786      254.118512      591.778330    15     0     0     0     1
       511.221321       14.243335      179.273531    18     1     0     0     3
      1724.861728      105.721370      189.256997     1     0     0     0     7
       147.396096      590.871761      595.336711    13     1     0     0     8
       228.372779      334.075565      166.711947     9     0     0     0     5
      2100.496553      573.032857      506.899704     1     0     0     0     1
      1104.392032      174.270337      333.756946    18     0     0     0     6
       210.585802      364.855072      552.519711    12     0     0     0     3
       121.169471      190.053582      384.672534     9     0     0     0     4
       815.237672      235.032736      350.218819    15     0     0     0     4
      2173.679875      399.616071      204.146870     1     0     0     0     6
      2251.687789      285.880939      381.937905     1     0     0     0     3
       434.670793      592.891705      316.800123     9     0     0     0     4
       740.020830      307.608728      262.743427    11     0     0     0     3
        73.395799      482.368066      134.304058     6     0     0     0     3
       773.030214      230.812627      417.135213    25     0     0     0     2
       156.786422      309.430438      120.807792    10     0     0     0     8
       421.795793      237.899692      490.747486    18     0     0     0     2
       361.430315      118.701974      191.829849    12     0     0     0     4
       395.580797       38.549053      259.969949    16     1     0     0     6
       362.152994      305.862713      284.492636    13     1     0     0     8
      1966.042962      299.799821      592.193921     1     0     0     0     3
       668.668291      258.067846      350.532157    14     0     0     0     7
      2053.493162       87.491225       35.029358     1     0     0     0     3
      2642.134785      206.566786      356.539687     1     0     0     0     4
       243.980806      595.965420      125.717606     6     0     0     0     2
      1622.063817       68.791994      509.140005     1     0     0     0     6
      1832.781238      406.039208      348.129854     1     0     0     0     5
       110.522162      100.994493      525.004330     5     0     0     0     5
       290.845811      366.502579       16.339261    10     1     0     0     5
       346.508231      589.874553      267.905274    17     2     0     0     4
      1629.140361       61.109092      385.967549     1     0     0     0     8
      2361.372276       83.918986      582.451573     1     0     0     0     4
       250.450807      350.605859      310.561221    12     0     0     0     2
      1855.515667      341.216948       40.167041     1     0     0     0     7
       762.550172       34.089654      509.611110    16     1     0     0     7
       222.047452      408.916412      122.724565    11     0     0     0     8
       509.088304      431.206617       12.994199    17     0     0     0     4
       501.285977       22.130065       35.831330    17     0     0     0     5
       305.975786      368.613296      590.199703    14     1     0     0     8
       316.733465      429.116109      584.740741    17     0     0     0     7
      1514.282782      515.682022       96.587898     1     0     0     0     2
       318.698289      198.863297      372.466134    11     1     0     0     4
       185.005800       21.067888       57.817021    10     0     0     0     6
       427.915363      392.245504      164.526400    21     0     0     0     7
       102.467670      384.751409      106.703431     8     0     0     0     6
       155.722171      288.346266      210.239939     8     0     0     0     3
       435.144792      145.714034      592.889699     8     1     0     0     2
       314.925656      179.423108      104.427855    11     1     0     0     1
       467.213408      161.413070      462.016563    10     0     0     0     7
      1774.956295      299.164203      482.085265     1     0     0     0     7
      1932.826415      273.647669      112.505242     1     0     0     0     3
       834.100902      558.021809      512.273213    27     0     0     0     1
       201.083337      529.311616      554.328103    10     0     0     0     4
       103.888299      514.770051      314.228603     8     1     0     0     6
        74.908750       93.539282      134.149024    13     1     0     0     5
       419.159891       30.254276       35.310214     7     1     0     0     6
       290.192495      385.520672      318.293074    19     0     0     0     6
        71.726297       19.363597       51.361224     8     0     0     0     6
      1570.368766      498.683446      318.495020    72     2     0     0     4
       292.320655      338.634334      535.991647    11     1     0     0     6
       191.303300       94.343404      380.974357    13     0     0     0     8
       368.731245      232.119993      245.437660    12     0     0     0     6
      1847.147122       77.932819       24.365108     1     0     0     0     6
       161.064860      367.737986      591.311646    13     1     0     0     2
      1017.043779      492.940695      336.077803    27     0     0     0     7
       154.253297      455.616287      178.489481    17     0     0     0     3
      2198.177929       49.081549      584.302024     1     0     0     0     8
       129.452302      547.803342      273.183537    13     1     0     0     8
       124.568300      365.486915      328.508666     9     0     0     0     1
       148.605339      559.487259      523.017554    13     1     0     0     1
      2710.366966      578.659785      336.193168     1     0     0     0     6
       302.598228      491.253336      290.096638    13     2     0     0     8
       479.003759      468.130110      275.691211     8     1     0     0     8
       313.463304      242.996080      153.361260     5     0     0     0     2
       265.455797      492.149389      559.784460    11     1     0     0     1
      2159.613793       26.610181        5.867814     1     0     0     0     3
       215.081275       90.112212      162.908282    17     0     0     0     5
      1101.238617      309.368380      559.490283    26     1     0     0     7
       508.570510      486.467118      574.859058     7     0     0     0     7
      1885.138784      255.716615      422.722249     1     0     0     0     2
       118.453302      416.161369      293.064054    10     0     0     0     1
        43.790933      219.124863      180.079492     9     0     0     0     1
       118.526300      127.841951      566.383527    10     0     0     0     6
       154.350801      319.876979       37.082890     8     0     0     0     2
      2901.999822      458.389799      361.339856     1     0     0     0     2
       291.890794      136.047058      158.310015    14     1     0     0     3
       242.685792      566.573789      166.319943    12     0     0     0     3
        37.166816       59.930029      105.992343     8     0     0     0     7
        66.928300       12.065259      310.014699    12     0     0     0     5
       155.105806      586.834751      533.262571    11     0     0     0     7
       517.883389      260.709305      300.897845    14     0     0     0     4
       614.119493      145.436300      132.250468     6     0     0     0     4
      1829.948067      324.136704      134.117394     1     0     0     0     3
       205.976148      103.287393      109.255781    13     1     0     0     2
       365.020369       53.608429      485.592080    15     0     0     0     6
       805.043291      259.957443      275.007323    19     2     0     0     5
      1758.313476      196.554561       87.853188     1     0     0     0     6
       470.653306      442.630190      307.499974    11     0     0     0     1
      2128.731142      188.718261      485.410961     1     0     0     0     2
       154.910295       34.682271       67.117321    12     1     0     0     4
       258.220796      387.832932      241.472335    12     0     0     0     7
       176.221234      224.236040       61.021136    11     1     0     0     5
       516.483293      555.650220       49.650899    16     0     0     0     8
        78.225801      211.167519      125.503550    11     0     0     0     1
      1660.252506      198.161483      553.797399     1     0     0     0     5
        19.179800      428.722826       91.763171     6     0     0     0     2
      3073.513486      163.922681      361.399925     1     0     0     0     5
       811.700822      132.088134      190.713785    24     0     0     0     7
       107.513299      402.877121      592.464508     8     0     0     0     4
       367.018297      114.372518      343.895971     9     2     0     0     2
       355.706392       98.906637      389.641373     9     0     0     0     4
       206.302102      335.479227      105.412098    15     0     0     0     8
      1798.763540       74.970873      186.915182     1     0     0     0     6
       617.113298      581.978711      181.378141    12     0     0     0     5
       237.170219      595.414660      264.606526     9     0     0     0     6
       106.724177       36.478057       57.453018     9     0     0     0     2
       116.500803      324.959042      200.038732     8     0     0     0     6
       404.705797      258.039012      486.156866     9     0     0     0     8