ITEM: TIMESTEP
0
ITEM: NUMBER OF ATOMS
        4504
ITEM: BOX BOUNDS pp pp pp
  0.0000000E+00   5000.00000000000     
  0.0000000E+00   600.000000000000     
  0.0000000E+00   600.000000000000     
ITEM: ATOMS x y z nV nH f3 f4 orient
       201.220796      464.952070      484.422723    23     0     0     0     6
       350.439806      497.528121      213.918282     8     0     0     0     5
       544.763322      138.061957      172.230416    17     0     0     0     3
      1819.116446      418.763115       35.419316     1     0     0     0     1
       206.796800      512.869106      316.114271    10     0     0     0     5
      2688.373511      508.197867      441.256267     1     0     0     0     5
       596.658397      464.364678      523.813931    18     0     0     0     3
      1009.698602      318.812741      518.994155    23     2     0     0     6
      1996.122441      395.727559      499.641811     1     0     0     0     6
       372.913286      430.538246      270.708045    11     1     0     0     8
       339.065813      546.603845      376.162937    22     0     0     0     8
       197.534303      271.462775      152.542897     7     0     0     0     3
       351.393785      565.855979      234.860821    17     0     0     0     3
       309.123308      290.754477      245.689437    16     0     0     0     1
       348.413512      485.720632      208.616819     6     1     0     0     1
       595.615291      493.862638      318.922171    12     0     0     0     2
       178.322657      328.554778       45.277504    17     0     0     0     1
       178.942214      124.240304      550.760670    12     0     0     0     7
       762.130643      560.182031      522.949044    17     0     0     0     7
       131.574800      185.336200      403.899145     9     0     0     0     4
       224.623381      318.685636      578.211920     7     0     0     0     8
        28.580801      194.864822      169.227476     6     0     0     0     7
      1889.361632      432.049571      467.924594     1     0     0     0     6
       431.722860       82.559067      340.601104    14     1     0     0     1
       249.722307      223.130636      419.982918     8     1     0     0     3
        51.864744      289.377466      228.982664     6     0     0     0     4
       513.206148      163.976333      146.164282    12     0     0     0     8
       552.137868      335.875140      301.126171    12     0     0     0     4
       195.314302      215.334625       29.360131    15     0     0     0     6
      1421.021644      459.803168      179.710371    81     1     0     0     2
        73.395799      482.368066      134.304058     6     0     0     0     1
      1873.273405      201.832472      393.041040     1     0     0     0     1
       763.496469      360.857407      422.913949    19     0     0     0     5
        75.488298      214.372913      555.551317    14     0     0     0     3
      2637.889492       52.363246       79.877283     1     0     0     0     3
       118.453302      416.161369      293.064054    10     0     0     0     8
      2345.693343      318.338564       72.378341     1     0     0     0     7
       528.518383       79.583436      168.924861    13     1     0     0     2
        36.715801      276.328052      499.095595    10     0     0     0     5
       700.023271      557.349362      120.335295    34     1     0     0     3
       323.281262      237.398901      494.170471    11     0     0     0     3
      2037.793740      336.454581      349.105622     1     0     0     0     2
      2277.849202      305.159631       36.793597     1     0     0     0     3
       158.655794      447.994051      581.508338     8     0     0     0     3
        75.558801      311.483780       43.838022    11     0     0     0     7
       877.738298      295.518854       54.173795    30     1     0     0     4
       338.109411      264.332857      180.765030     9     0     0     0     3
       452.274797      242.371521      153.813992    14     1     0     0     2
       366.180803      584.940034      434.178773     9     0     0     0     4
       565.595781      278.786939      291.264918    13     1     0     0     4
       339.202591      127.131693      490.813147    11     0     0     0     3
       165.788301      311.936281      495.384419    18     0     0     0     7
        67.707114      125.967885      569.576900     5     1     0     0     7
        71.718797       17.719602      214.788359    10     0     0     0     2
       129.452302      547.803342      273.183537    13     1     0     0     5
       817.265825      304.944725       56.581968    25     0     0     0     2
      1176.596594      416.731848      548.345842    49     1     0     0     5
       636.293235      376.766236      339.151978    12     2     0     0     4
       337.568003      292.368959      595.553255    11     0     0     0     1
       359.631792      500.483450      278.217118     9     0     0     0     5
       546.600568      435.989446      353.192515    18     0     0     0     4
      1155.087449      582.794583      244.322599    39     0     0     0     3
       150.048296      374.240971       41.111422     8     0     0     0     3
       979.595570      374.182337      288.275523    21     2     0     0     2
      1767.168377      528.648032      254.522370     1     0     0     0     4
      2238.498935      485.783362      473.194802     1     0     0     0     8
       210.618303      135.471819      594.994327    17     0     0     0     3
       897.013979      114.253269       16.948733    14     0     0     0     7
       105.048303      404.245052      221.257735     8     0     0     0     7
       203.460802      489.485335       63.917454    19     0     0     0     8
       256.225801        3.692685      400.682098    18     0     0     0     6
       135.788301      192.153370       70.486074    10     0     0     0     3
       484.700338      133.870463      455.037645    10     0     0     0     3
       441.863298      139.668168      281.221203    16     0     0     0     7
       832.856245       77.159084       31.270545    23     1     0     0     5
      2456.969500      566.043691      130.209164     1     0     0     0     5
       206.680486      459.564773       90.604318    14     0     0     0     8
       966.654349      474.706257      260.768911    28     1     0     0     8
       358.258479      501.716339      349.242820    10     2     0     0     4
      2208.235439       42.671821      264.120013     1     0     0     0     2
       619.043291       58.672410      247.196710    13     1     0     0     5
      1795.965787      237.210716        4.802030     1     0     0     0     3
       292.460010      209.033912      142.389601     8     0     0     0     2
       198.131696      242.741959      590.149668    14     0     0     0     3
        68.393301      506.946179       40.573741    15     0     0     0     6
        50.802801       10.903073      302.212756     6     0     0     0     7
      1459.776694      174.112528      108.463082     1     0     0     0     2
       637.560581       49.625462      383.888571    20     0     0     0     1
       319.683794      542.817706      270.693224    11     0     0     0     3
       803.023757      127.344179       36.006242    16     1     0     0     1
        41.895742      429.283495      195.282738    10     0     0     0     1
      1748.493053       24.020027      357.319094     1     0     0     0     8
        72.447246      388.640148      509.335832     7     0     0     0     2
      1213.588178       25.206684      391.649948    39     1     0     0     3
       219.459245      177.313568      324.760601     8     0     0     0     8
       190.145799       78.282100      225.833790     6     0     0     0     8
      1258.777478      293.684459      513.976027     1     0     0     0     2
       400.970811      167.650629      519.692180     8     0     0     0     7
       334.502683      344.524995      255.724891     9     1     0     0     6
       501.780285      569.961868      549.762374    18     1     0     0     3
       421.190554       98.824812      544.302554     6     1     0     0     4
        57.415800      111.976367       51.987346    10     0     0     0     8
       374.376731      135.215566       83.157690    19     1     0     0     4
       613.561734       98.311153      399.649910    16     2     0     0     4
       138.233211      515.616418       90.815292    17     0     0     0     5
      1124.251387      219.271402      238.861458    38     0     0     0     6
       175.803300      277.571075      263.996111     9     0     0     0     7
        99.958381      112.986360      342.913672     6     0     0     0     3
       294.068502      174.388027      285.095080    11     0     0     0     2
       711.273271      129.594007      321.920368    14     0     0     0     3
       486.210802      346.828264      548.589062    17     1     0     0     2
        91.898302      593.626224      586.109558    12     0     0     0     7
       544.008317      306.447584       83.099081    17     0     0     0     4
       157.517305      513.871800      306.903217     6     0     0     0     2
       543.149733      463.764236       60.273328    17     0     0     0     3
       224.274797      318.772053      253.669050    15     0     0     0     4
        79.634302      521.996073      178.487138    15     0     0     0     3
       234.803598      147.498727      572.418041     7     0     0     0     1
       498.954396      584.211629      457.836276    15     1     0     0     2
      2369.790763      429.779033      287.477854     1     0     0     0     6
       106.555952      513.447500       24.403239    13     0     0     0     2
       263.046905      111.616309      304.182139    15     0     0     0     4
       169.755729       60.342888      250.083283     9     0     0     0     6
       649.700822      470.738101      352.274244    18     2     0     0     5
       234.608293      356.547351        7.422590    10     0     0     0     1
      2172.096984       35.201924      104.787005     1     0     0     0     4
      1356.287150      493.598144      566.096725    55     0     0     0     6
       913.638322      277.270105      213.633194    34     0     0     0     5
       126.988298       61.575217       89.345653    17     0     0     0     8
       310.814786      179.705875      352.663046     4     0     0     0     1
       953.370805      211.139158      114.389910    22     0     0     0     7
      2393.498967      350.347647      417.489251     1     0     0     0     5
      2280.084676       71.523754      279.944035     1     0     0     0     6
       390.262275      131.902635      245.209952     8     0     0     0     6
        49.362798      130.988742      380.100896    12     0     0     0     8
       578.080827      568.297341      564.770520    15     0     0     0     1
       419.056976      362.066393       31.472786    14     0     0     0     6
       208.793674      255.500019      319.184367    18     0     0     0     1
        24.339799      111.746130      371.403501     9     0     0     0     2
       740.020830      307.608728      262.743427    11     1     0     0     5
      2812.599322      250.285258      417.512938     1     0     0     0     7
       309.884530      225.369458      104.106297    12     1     0     0     1
       350.264042      592.553329      144.823745    10     0     0     0     4
       341.669722      120.222065      414.502534    14     0     0     0     6
        92.801301      305.244120       91.939132     9     0     0     0     3
        97.582101      509.520910       83.023702    12     0     0     0     4
       997.005151      200.001709      310.130833    23     1     0     0     1
        72.095804      145.610267      336.919087    13     1     0     0     4
       225.247366      307.303017      411.758018     6     0     0     0     4
       770.873308      158.692192      424.306537    13     1     0     0     8
       751.830883       56.622438      471.969650    20     0     0     0     5
       935.290733      361.067117      192.761239    24     4     0     0     1
       202.078294      416.911928      275.726397    11     1     0     0     1
        35.348959      134.708949        7.936543     6     0     0     0     3
        41.350801      128.226347      500.637237     9     0     0     0     3
        73.474881       25.411623      220.481880    10     0     0     0     5
        72.383302        0.729305      284.224217    13     1     0     0     4
        95.240226       21.988972      315.279993    10     0     0     0     8
       337.362265      501.676432       84.928335    17     0     0     0     1
        77.288372      164.425263      137.142609    11     0     0     0     5
      2854.846735       11.196885       54.344555     1     0     0     0     2
       176.548296      406.715774      243.919358    11     1     0     0     4
       430.917897      222.833350      337.304180     6     1     0     0     6
       539.305803      330.605197      444.151273     8     1     0     0     7
       502.459072      264.924725      396.165454    14     0     0     0     5
       251.160501      453.229467      343.704392    20     0     0     0     5
        73.080797       60.734820      267.109957     8     0     0     0     7
       251.360881      311.406173      553.158601    10     1     0     0     7
        95.100801       41.441911      436.661523    12     1     0     0     7
      1076.943227      562.442572      213.146993    28     2     0     0     1
       908.308305      247.466989      250.540404    19     0     0     0     7
       380.183891      337.894376      474.857439    14     1     0     0     4
      1692.799283      233.359286      282.017555     1     0     0     0     6
       159.933305        4.285097      598.615408    13     0     0     0     7
       484.011225      563.570547      266.342566    16     0     0     0     6
       326.380815      124.436845      412.175855    12     0     0     0     6
      1023.418779      158.283028      171.285365    22     0     0     0     2
       658.587764       71.790262      356.322337    17     2     0     0     5
       102.214248      331.883104       23.841608    18     0     0     0     1
        98.151883      227.935151      159.825590     7     0     0     0     3
        99.255792      382.432149      232.805730     7     0     0     0     5
       117.624803      586.011635      407.818428    15     0     0     0     3
        19.179800      428.722826       91.763171     6     0     0     0     4
       238.888307      232.988954      176.635916    17     0     0     0     4
       328.620805      234.892997      577.460701    13     1     0     0     7
      2553.489685      285.228398      519.307626     1     0     0     0     5
      2596.197985      248.552851      228.599718     1     0     0     0     4
       823.386745      490.446399      441.801548    10     0     0     0     8
      2483.245572       91.786028      439.459882     1     0     0     0     6
       186.281297      199.720906      131.360269    16     0     0     0     8
      2305.189362        1.424790      153.536781     1     0     0     0     2
       395.580797       38.549053      259.969949    16     0     0     0     4
      1199.515943      329.001140      251.948099    37     1     0     0     6
       122.004197      354.513412        5.399394    10     0     0     0     5
      3227.433021      323.274383       19.314932     1     0     0     0     7
       232.958002       11.850839      195.572033    14     0     0     0     1
       124.590799      148.109780       65.918350    10     0     0     0     5
      2161.514122      499.557138      479.160887     1     0     0     0     8
       249.509772      531.017846      200.080027    13     2     0     0     3
      2397.593464      332.712597      462.665836     1     0     0     0     7
      1849.310980      251.560738      162.517947     1     0     0     0     1
       163.359804      466.930659      145.793560    16     0     0     0     8
        99.660799      515.146894      161.186177    17     1     0     0     2
       283.583299      555.505515      512.876622    17     1     0     0     2
      2419.483706       91.499230      142.183987     1     0     0     0     8
       421.608640      480.015097      196.071483    13     1     0     0     5
       178.670879      419.693138       60.199945     7     2     0     0     3
       129.586177      383.060006      173.176751    19     0     0     0     6
        42.945607      139.492093      445.112271     5     0     0     0     2
        99.525796      105.605236      428.870756    21     0     0     0     6
       139.693300      355.379743      510.615683    12     0     0     0     2
       234.746070       48.915349      213.119743    12     0     0     0     4
        80.093453      554.381070      325.019924    10     0     0     0     4
      1881.884929      249.873245      355.555211     1     0     0     0     8
        55.578298      176.570648      359.414696     6     0     0     0     8
       335.105351      248.481261      566.415918    15     0     0     0     8
       147.396096      590.871761      595.336711    13     0     0     0     1
       171.340770        0.990703      483.711660    14     0     0     0     3
       291.890794      136.047058      158.310015    14     2     0     0     6
       774.598283      327.271039       79.696372    22     2     0     0     7
       110.920801      532.827715      303.984776     9     0     0     0     2
      1135.701897      448.691997      143.461248    53     4     0     0     3
       161.745640      482.736078      311.714773     6     0     0     0     1
        59.863047      202.609556      140.674299     7     0     0     0     8
        81.109514       57.608699      555.729525     9     0     0     0     3
       540.658281      371.798803      391.181082    14     2     0     0     1
      1019.250900      185.010539      504.712606    37     0     0     0     2
       938.733293      140.999532      124.220505    28     2     0     0     8
       144.117799      427.785700      441.077595    16     0     0     0     6
       190.643297      100.610733      420.050834     8     0     0     0     3
       446.878313      532.685457      369.726805    21     1     0     0     2
       152.085802      142.455872      150.399977    14     0     0     0     8
       447.675798      200.838217        2.840659    10     1     0     0     8
       354.398302      224.814232       89.191758    14     1     0     0     8
      1793.048874      421.374308       49.550662     1     0     0     0     2
       546.988298      372.397515      570.071924    20     1     0     0     6
       424.018297      443.572880      391.831938    18     1     0     0     2
       181.444116       39.297794      198.818454    15     0     0     0     6
        45.190801      347.926566      135.749584    11     0     0     0     5
       442.298296      246.731101      419.381352    11     0     0     0     8
       234.775804      557.956589      385.938450    15     0     0     0     1
       136.053316       97.395588      375.437288    11     0     0     0     7
        67.040800      441.770715      138.105264    11     0     0     0     1
       340.448711      226.503642      368.761714    15     0     0     0     5
       120.051727      395.007106      147.777534    14     0     0     0     7
       104.295801      352.669694      373.332559    12     0     0     0     6
        95.793191      215.444752       47.543222     9     0     0     0     5
       894.676741      512.337319       32.917365    17     1     0     0     1
       136.030794      472.989603      297.446467     7     0     0     0     3
      2064.247747      460.904543      471.217981     1     0     0     0     1
       726.318669      552.065401      419.741266    17     0     0     0     2
       178.035799      184.871052      281.818415    15     0     0     0     5
      2273.366011      493.215585       83.364100     1     0     0     0     3
       401.688310      369.623123      371.468958    11     1     0     0     2
        66.986803      398.412451      479.977756     6     0     0     0     5
       221.323037      196.086579      386.451382     7     0     0     0     2
       599.350730      395.135501      566.805756    17     0     0     0     6
       444.326135      578.263312       15.675983    11     0     0     0     5
      2529.861576      196.602245       79.176900     1     0     0     0     6
        86.775796      344.451050      488.628095    10     0     0     0     1
      1042.035844      480.032336      290.329789    22     0     0     0     8
       350.670793      598.778375      409.094497     9     0     0     0     1
       575.014574      245.055711       63.899540    13     1     0     0     7
      2441.798077      331.597782      164.243528     1     0     0     0     3
      1859.903768      423.666289      444.448160     1     0     0     0     1
      1426.402882      190.624242      574.103672    75     2     0     0     5
       195.110881      499.276167      323.993646     9     0     0     0     7
       243.196029      267.078395       41.616132    13     1     0     0     3
      1658.168246      595.667121      282.256234     1     0     0     0     7
       843.060808      484.236873      542.768717    29     0     0     0     8
       904.643327       66.234840      575.234920    27     0     0     0     3
       443.260595      594.217136       46.312803     9     0     0     0     6
       242.636140       54.719771      268.439303     6     0     0     0     2
       481.762188      279.078466      412.084810    14     1     0     0     4
      1696.651772      398.408023       95.138552     1     0     0     0     1
      1798.440385      187.491424      195.238013     1     0     0     0     7
      2450.977508      434.480387      596.364160     1     0     0     0     4
      2157.180241      406.941117      390.684300     1     0     0     0     6
       584.469679      182.729846      521.489039    16     0     0     0     8
       775.156809      299.333645      478.262816    10     2     0     0     1
      2193.705375      468.786485      473.120718     1     0     0     0     4
       130.285588      578.475332      431.884523    17     0     0     0     1
      1126.505815      546.016033      283.723687    29     1     0     0     4
       908.782617      406.240848      292.578952    12     2     0     0     7
       242.841054      291.670570      550.960383    16     0     0     0     4
       510.945787      575.756510      330.863552    19     1     0     0     6
        21.255872      111.476505      550.672599    10     0     0     0     2
       156.058305      487.254050      236.236948    13     1     0     0     3
        23.303300      227.599173       85.531294     9     0     0     0     6
       848.706285      344.628935      594.690434    21     1     0     0     7
       440.080797      212.675662      413.160381    12     0     0     0     7
       160.511891      519.864622      258.310361     8     0     0     0     5
       934.623308      378.042561      192.585409    19     0     0     0     3
       249.554221      527.788559      131.654946    14     0     0     0     1
       337.405691      565.496641       77.955355    13     1     0     0     8
      2324.236200      269.953197      162.855147     1     0     0     0     8
      1928.433504      440.691171      182.119115     1     0     0     0     4
      1151.219070      470.911724      309.273336    47     0     0     0     7
       513.064796      508.251006       91.261928    13     0     0     0     1
        75.928151      262.346602      126.186674     8     0     0     0     5
       393.942796      328.263866      299.754995    17     2     0     0     2
      1407.934205       98.874851      350.880057     1     0     0     0     3
        98.945802      331.260952      299.333912    14     0     0     0     6
      1971.027494      347.691383       89.532348     1     0     0     0     5
      1872.826985      322.434033      488.228569     1     0     0     0     8
       992.951913      448.747624      157.175642    26     1     0     0     4
       207.183305      543.113074      341.369309    12     0     0     0     6
       163.163793      561.290851      326.110592     8     2     0     0     6
      1932.800834       78.982016      209.242541     1     0     0     0     1
       365.009563      241.740523      457.472179     6     0     0     0     8
       600.938084      497.627972      227.478175    19     0     0     0     1
      2200.354496      160.712538      207.937244     1     0     0     0     6
       116.485803      465.750617      303.242490    12     0     0     0     4
       124.568300      365.486915      328.508666     9     0     0     0     5
       288.213304      492.351962      443.804903    15     0     0     0     4
       255.446306      350.546877      412.657941     6     0     0     0     4
      3012.729921      455.545065      345.727643     1     0     0     0     4
       117.724050      466.209506      437.564234    17     0     0     0     5
       480.125412      162.501081       77.059000     8     0     0     0     1
       171.430803      126.147616        0.037727    11     0     0     0     7
       112.575729      384.544263      566.200719    13     1     0     0     7
       694.192861      188.585712       36.294404    15     1     0     0     3
       275.640496      256.596664       67.554809    10     0     0     0     4
      1806.883431      120.043091       28.583787     1     0     0     0     6
      2654.068345      104.400432      151.320536     1     0     0     0     2
       662.140825      331.907154      311.811095    28     0     0     0     5
        76.860217      571.954136       69.084160    12     0     0     0     1
       126.275156       84.827571      535.114298     8     1     0     0     8
       583.610079      349.945053      231.919981    20     0     0     0     5
       739.410783      264.798967      211.557997    26     1     0     0     8
      1382.219612       15.606529      329.225291     1     0     0     0     6
        93.875823       96.472821      593.652193     7     0     0     0     5
        69.300802      518.593220      259.094481    12     0     0     0     1
      1907.701293      585.433511      388.520752     1     0     0     0     4
       127.858190      342.084625      234.849879     7     0     0     0     5
       144.282139       20.924231      128.014833    11     0     0     0     8
       482.042203       81.762010       80.823204    10     0     0     0     2
       175.595796      293.045406      338.935989    19     0     0     0     1
      2812.676949      473.409626      429.951707     1     0     0     0     1
       340.373308      311.938442      254.995977    11     0     0     0     6
      1185.467754      558.925051      596.616532    54     3     0     0     2
       775.931201      279.484587      468.911348    17     0     0     0     6
       122.258224      481.093785      361.795416    12     0     0     0     5
        19.762208      535.603495      553.345728     6     0     0     0     6
        37.278875      396.403054      352.063208    12     0     0     0     5
       829.583385      571.591566      564.648596    16     2     0     0     6
      1893.910462       26.232489      304.625103     1     0     0     0     1
      2014.362749      322.225442      222.084644     1     0     0     0     1
       260.945802      333.105568      140.170770     8     0     0     0     1
       621.529361      368.702381      326.965332    13     1     0     0     7
       916.128313      442.944365      160.851339    24     0     0     0     2
       500.692214       18.798797      114.517173    11     0     0     0     8
      3138.327843      577.062979      127.094879     1     0     0     0     4
       281.635789      233.360389      346.372629    13     1     0     0     7
       291.213304       26.200352      380.298975    12     1     0     0     8
       304.468309      262.982587      325.928849    17     0     0     0     3
       816.475786      234.064523      500.257391    23     0     0     0     1
       375.980791      154.303460      359.174082    12     0     0     0     2
      2649.682925      126.769945      522.371004     1     0     0     0     5
       698.346335      477.981702      409.903855    14     0     0     0     2
      2779.261371      356.788011      527.538833     1     0     0     0     5
       327.568315      466.715395      331.759266    14     0     0     0     8
       264.068315      571.344678        2.001833    10     0     0     0     8
      1853.250382      539.446658      315.917504     1     0     0     0     3
       967.580827      224.646350       61.756027    24     0     0     0     3
       278.158693      204.260396      520.954275    16     0     0     0     4
      1523.927736        2.066093      444.452303     1     0     0     0     8
      2198.158309      139.763228      579.340062     1     0     0     0     2
       101.495302       37.895268       96.251158    11     0     0     0     4
       338.703294      592.468310      478.975360    13     1     0     0     1
       231.099053      130.990905      291.276306     5     0     0     0     3
        39.260112      356.724879      461.679876    12     0     0     0     6