ITEM: TIMESTEP
0
ITEM: NUMBER OF ATOMS
        4503
ITEM: BOX BOUNDS pp pp pp
  0.0000000E+00   5000.00000000000     
  0.0000000E+00   600.000000000000     
  0.0000000E+00   600.000000000000     
ITEM: ATOMS x y z nV nH f3 f4 orient
       292.320655      338.634334      535.991647    11     0     0     0     5
       426.216150      445.655710      281.905365    13     1     0     0     8
       746.832079       97.832042      291.950591    13     1     0     0     6
       211.060565      392.703976      329.280565     8     0     0     0     1
      1114.635890       10.188749      254.762993    32     0     0     0     7
      1626.607654      114.081052      572.153511     1     0     0     0     7
       105.048303      404.245052      221.257735     8     0     0     0     8
       316.211008      478.701148       30.898765    20     0     0     0     1
       249.355228      355.429618       60.352219     7     0     0     0     1
       256.878297      176.187928      545.960035    20     0     0     0     5
        19.904300      197.461112      220.395222     9     0     0     0     4
       381.946013      325.825378      439.592937     8     0     0     0     5
       150.469120      242.980932      168.251379     7     0     0     0     5
       411.645063      327.404618      533.689434     9     2     0     0     5
       230.328294      463.971170      318.553308    15     0     0     0     5
      1560.360179        0.906443      561.384142     1     0     0     0     2
       412.004722      341.212955      281.035228     9     2     0     0     6
       121.336116       30.534843       31.032560    16     0     0     0     2
      1569.163084       64.037113      157.325803     1     0     0     0     7
       121.718301       40.928162      180.149544    13     0     0     0     3
       125.181802      435.132709      208.137027    13     1     0     0     6
        50.503301      271.151431       87.975550    13     0     0     0     3
       412.555803       29.268231      336.136864    22     1     0     0     4
       141.485796      353.608319      538.044823     4     0     0     0     2
       282.863298      316.362634      354.521452    20     1     0     0     1
        41.160799      251.752813      200.747680    10     0     0     0     3
       859.163286      141.536095      533.489599    19     0     0     0     3
      2358.831744       70.123723      583.835802     1     0     0     0     4
       125.285799      311.041985      107.090288     7     0     0     0     1
       818.463274       56.282246      595.718261    18     0     0     0     4
       419.861335      532.033861      130.428975    11     0     0     0     6
        62.349521      358.135621      483.144390     8     0     0     0     2
       181.808305       71.658247      307.033398    12     0     0     0     3
       165.788301      311.936281      495.384419    18     0     0     0     4
      2353.281369      392.850441      446.840088     1     0     0     0     3
       863.330827      418.103569      270.663148    16     0     0     0     3
      1927.457809      359.126011      209.159171     1     0     0     0     5
       200.608222      558.497148      278.429251    10     0     0     0     4
       289.093450      109.441326      376.953057    12     0     0     0     5
       185.368303      171.726278      323.672046     9     0     0     0     6
       119.208076      139.213147       14.518541    11     0     0     0     8
      2006.399160      130.839035      462.641173     1     0     0     0     5
       528.518383       79.583436      168.924861    13     1     0     0     4
      2075.218404       88.870286       43.144583     1     0     0     0     8
        87.931067      455.910223      564.948175    14     0     0     0     6
      1962.978186      582.798785      384.219925     1     0     0     0     5
       438.783311      491.606962      349.133823    23     0     0     0     5
       200.111845      188.973247       84.333984    12     0     0     0     2
       762.550172       34.089654      509.611110    16     0     0     0     8
       535.648271      474.605412      470.901235    11     0     0     0     4
      1593.885650      282.553556      230.323919     1     0     0     0     7
       105.905298      417.902751      120.127669    10     0     0     0     6
       292.472362      575.990506      218.803016     9     0     0     0     3
       421.790788      526.527979      534.161363    10     0     0     0     8
       422.430803      159.125270      204.607374    18     0     0     0     4
        91.823855      571.050540      380.951019    11     0     0     0     7
       718.623484      505.666899      381.443091    24     0     0     0     7
      1176.596594      416.731848      548.345842    49     0     0     0     8
       996.418463      496.187183      470.476756    29     0     0     0     6
       143.408718      438.752629      359.354206     7     1     0     0     2
       156.822694      419.473836      178.617018    10     0     0     0     3
       870.487854      556.034893      504.274464    13     1     0     0     1
      1560.141421       92.914541      576.991133     1     0     0     0     4
       717.732191      468.768067      245.391974    24     0     0     0     7
       847.664154      528.105770      393.776344    22     0     0     0     6
      2747.305456      417.657463       58.580623     1     0     0     0     3
       189.788783      372.744983      181.451845     8     0     0     0     5
      1063.722856      406.467642      468.724995    30     1     0     0     7
       511.615153      577.743192      109.063854     6     0     0     0     6
       331.820787      458.056872      338.543844    11     0     0     0     2
      2455.386925        2.442912      267.893174     1     0     0     0     5
       282.279716      138.100297      405.934072    23     0     0     0     3
       777.494421      442.623455       43.537065    19     0     0     0     6
       158.387300      478.818345      400.488306    10     0     0     0     5
       610.172109      464.891116      207.476983    12     0     0     0     2
      2185.496165      433.818695      393.772154     1     0     0     0     8
       543.715776      398.688117      247.494282    17     0     0     0     3
      2533.904427      256.126193      282.167360     1     0     0     0     7
      1487.069964      324.593712      286.203190    81     1     0     0     8
      2053.124467       92.157370      183.344563     1     0     0     0     2
       686.030667      116.123836      473.123873    18     0     0     0     1
      2014.466408      237.784687      400.602951     1     0     0     0     6
       233.790279       45.763829      429.796807    13     0     0     0     3
      2556.237511      345.205908      224.506443     1     0     0     0     5
        36.419962      408.036409       49.280256     7     0     0     0     4
        25.702341        3.498067      301.724732     7     0     0     0     4
       111.290803      197.981450      124.316732    13     0     0     0     5
      1542.620799        5.547376      120.806550     1     0     0     0     4
        52.177543      222.164433      155.527080    10     0     0     0     7
       516.418064      109.785834      393.667574    16     1     0     0     2
       852.837538      325.780299      342.999209    11     0     0     0     3
      1722.830303       64.147851      167.242913     1     0     0     0     3
       301.272794      458.417185       80.430632    19     0     0     0     4
       614.119493      145.436300      132.250468     6     1     0     0     3
       772.933571      226.922927      254.420913    20     1     0     0     7
       123.584299      512.352015      577.664677     9     1     0     0     6
       735.340776      449.448654      485.868758    15     0     0     0     1
       645.804685       61.865551      552.333212    15     0     0     0     7
       493.895906        6.365355      236.297931    22     0     0     0     2
        26.190799      506.147763      252.298850    10     0     0     0     6
       422.913286      251.342415      142.609640    11     0     0     0     1
      1049.337287      208.631181      119.089682    28     0     0     0     7
       510.405809      486.489880      491.770633    14     2     0     0     8
       439.345811        7.261730      515.823204    11     0     0     0     5
       763.493303      467.591489      503.924114    13     1     0     0     7
        78.655801      364.736140      360.458180    18     0     0     0     8
        42.479225      237.135494      234.056042     9     0     0     0     2
       528.726434      166.427611      448.538150    16     0     0     0     7
       572.440359      441.398332      209.613776    15     0     0     0     5
       583.873308      212.923858      236.944731    18     1     0     0     4
       377.860796      451.256472      553.299710     9     0     0     0     8
       407.191331       63.790836      330.710786     9     0     0     0     6
      1647.471037      539.867929       73.677387     1     0     0     0     2
       634.184844       30.331334      248.352025     9     0     0     0     5
        44.540800      579.225247      539.403466    17     0     0     0     2
       166.684106      173.811643      264.264158    15     0     0     0     8
       181.598596      498.122369       45.497513     8     0     0     0     8
       248.265794      375.473826      391.715404    10     0     0     0     8
       424.736314      593.606571      581.998330    17     0     0     0     5
       524.448320      210.700483      410.024605    11     0     0     0     6
        57.275301      558.950557      565.194014    19     0     0     0     8
       169.400842      247.459265      360.761750    10     0     0     0     5
       220.111811      281.956967      369.176572    13     1     0     0     4
       141.573305      130.371355      544.211341    12     0     0     0     3
       735.643327      355.866040      458.606118    19     0     0     0     5
      1705.743045      241.614784       96.985555     1     0     0     0     1
      2509.457005       23.432044       22.151527     1     0     0     0     8
      1650.989543      218.112779      190.170925     1     0     0     0     3
        41.702299       16.893936      126.913884     8     0     0     0     3
       878.160783      207.248542      245.792363    19     1     0     0     3
       439.591596      152.782228      558.837602    10     0     0     0     1
       697.412881      109.219266        6.539289    27     1     0     0     3
      2973.809266      588.905085      231.830593     1     0     0     0     8
       265.455797      492.149389      559.784460    11     0     0     0     5
       252.005800      522.184559      401.024592     6     2     0     0     1
       416.243303      256.539576       95.802209    16     1     0     0     5
       316.338672      567.535475       69.649493     8     0     0     0     7
       147.530305      546.103904       58.651773    10     0     0     0     3
        24.339799      111.746130      371.403501     9     0     0     0     2
       399.310252       83.407899      194.152806    21     0     0     0     2
      2056.664350      497.456233      596.309367     1     0     0     0     8
       214.463304      429.254393       35.470308    10     0     0     0     6
       104.295801      352.669694      373.332559    12     0     0     0     7
       323.890794      512.084103      481.059645     9     0     0     0     2
      1410.966519      395.103103      573.117886    77     0     0     0     2
       249.900578      472.754176      346.999097    11     0     0     0     6
       261.480804      592.143163      429.963667    17     0     0     0     6
       520.842173      257.952854      276.021937     7     0     0     0     3
       115.514963      367.524547      365.654796     5     0     0     0     7
       363.763292      417.804346      274.112754    23     0     0     0     5
       483.178074      250.272761      200.478138    14     0     0     0     3
      1288.422888       92.968761      312.054454     1     0     0     0     1
       277.767808      264.154225      183.747789     9     0     0     0     7
        52.483742      137.708061       15.091888    14     0     0     0     6
       132.115800      160.498293      399.670763    13     0     0     0     2
       324.241027      496.148073       52.272258    18     0     0     0     1
      1795.398949      586.481099      371.763327     1     0     0     0     4
       989.001648        8.775325      322.892845    22     0     0     0     7
       506.155809      315.256670      118.893404    12     0     0     0     3
        68.669302      171.664051      219.608984    18     0     0     0     2
      2233.756256      582.051035      530.900881     1     0     0     0     5
       397.095811      296.145773      421.996719     8     0     0     0     8
       255.135710       12.898392        2.986451    12     0     0     0     8
       139.603006      563.995190      170.407036     9     1     0     0     6
       206.145728      487.012308      165.413314     9     0     0     0     7
       469.860796      588.610233      272.006519    15     0     0     0     5
        64.533651      128.921148      318.144221    10     0     0     0     3
        79.976966       31.027682       73.412505     7     0     0     0     4
       674.343395      159.821551      204.471209    13     1     0     0     6
       177.840806      420.882395      274.227063    15     0     0     0     4
       273.788286      559.785566      404.412167    11     0     0     0     2
       442.425798      360.570870       22.326464    13     3     0     0     8
      1643.468546      379.988689      145.912604     1     0     0     0     8
       794.582776      182.831284       45.794788    18     1     0     0     3
      2017.257217      177.974904      154.844499     1     0     0     0     8
       163.266943      153.908737      341.522415    11     0     0     0     4
        75.812303       17.043548      437.378643    13     1     0     0     5
       591.983238      102.315788      243.264700    12     0     0     0     4
       182.964915      599.207307       18.575795     9     1     0     0     7
       134.200799      561.812561      370.627963    12     0     0     0     8
        59.863047      202.609556      140.674299     7     0     0     0     6
       157.517305      513.871800      306.903217     6     0     0     0     6
        41.975833      423.596671       43.217109     6     0     0     0     3
      1076.943227      562.442572      213.146993    28     0     0     0     2
       355.673296      433.737639       96.261275    12     0     0     0     8
      2715.114690       34.049903      223.830356     1     0     0     0     2
      2088.637931      495.961092       33.639157     1     0     0     0     3
       283.818437      159.847586       10.496915    10     0     0     0     2
      2266.009889       60.378330      418.350425     1     0     0     0     5
        45.190801      347.926566      135.749584    11     0     0     0     5
      2785.624989       65.739444      342.551677     1     0     0     0     2
       299.025804      418.091750      443.624890    12     0     0     0     5
       218.405892      230.092312       71.320404    14     0     0     0     6
      1677.350949      154.860765      225.066240     1     0     0     0     4
      2337.890090      373.867511      479.428427     1     0     0     0     5
       397.823289      371.133360      333.420105    15     1     0     0     3
       402.023302      102.503692      317.746261    10     1     0     0     5
      1236.130074      197.862570       41.513263    68     1     0     0     6
       134.348299       16.378360       62.123113    12     0     0     0     3
      2394.887015       65.745180      375.820253     1     0     0     0     5
      1581.371881      294.610287      311.390155     1     0     0     0     1
       952.633317      568.812658      279.284556    32     0     0     0     3
       637.020830      357.387421       75.350274    27     1     0     0     3
       110.523798      244.972681       27.106732     6     0     0     0     3
       856.850532      329.711537       39.124823    15     0     0     0     8
       169.478303      589.559405      454.075102    13     0     0     0     4
       393.942796      328.263866      299.754995    17     0     0     0     7
        97.582101      509.520910       83.023702    12     0     0     0     8
       101.495302       37.895268       96.251158    11     0     0     0     6
       142.395134      190.653833      371.288711     9     0     0     0     5
       388.116807       95.313076      294.867136    12     1     0     0     6
        73.080797       60.734820      267.109957     8     0     0     0     6
       192.284303      527.467228      290.342177    15     0     0     0     6
      2513.132987       26.224930      280.449926     1     0     0     0     6
       137.729295      188.126641      515.036378     9     0     0     0     6
      2729.855160      146.830445      311.214751     1     0     0     0     1
       512.875810      149.116131        8.210150    10     0     0     0     1
        37.998800      409.920536      533.246336     8     0     0     0     6
        61.556025      497.640678      390.324828     8     0     0     0     4
        64.760879      238.898977      526.876339    15     0     0     0     2
        60.535799      327.275684       76.518808     9     0     0     0     3
        82.671309       84.335942      192.339073    11     0     0     0     7
       161.972047      101.484883      101.665379    14     0     0     0     8
        77.288372      164.425263      137.142609    11     0     0     0     7
        81.109514       57.608699      555.729525     9     0     0     0     3
      2139.046558      244.403898       99.163536     1     0     0     0     4
      2214.127045      563.677195      173.002385     1     0     0     0     2
       410.950792      417.198569      139.894612    23     0     0     0     6
       603.950368      343.425054      578.306461    24     0     0     0     8
        71.012300      202.322996      103.339621     7     0     0     0     4
       118.453302      416.161369      293.064054    10     0     0     0     3
       634.336153      137.065879      145.219992    11     0     0     0     1
      2367.848123      356.399913       88.064001     1     0     0     0     7
       149.395799       81.770933      160.203020    12     1     0     0     2
      2235.892604      524.901219      141.321432     1     0     0     0     8
       245.792228      414.873945      308.008086    12     0     0     0     8
        16.493300      402.388075       37.456451     7     0     0     0     7
       201.412908      101.339449      234.197969    15     0     0     0     8
        34.274299      375.218326      135.585429     7     0     0     0     6
      1449.191223      473.484359      217.152879     1     0     0     0     6
       212.229806      554.386921      239.945282     9     0     0     0     5
       224.144375      478.747359      515.007573     9     1     0     0     5
        67.707114      125.967885      569.576900     5     0     0     0     8
       901.969990      377.534416      335.123930    16     0     0     0     7
       617.268736      442.066517      212.936708    20     0     0     0     6
      1435.609691      287.164276      395.443334     1     0     0     0     1
       247.950807      545.060778      568.400894    17     0     0     0     2
       470.653306      442.630190      307.499974    11     0     0     0     5
       152.118806      571.435366      176.549616    15     0     0     0     3
       304.468309      262.982587      325.928849    17     0     0     0     6
       389.680803      473.182470      437.706790    15     0     0     0     8
       115.775796      599.498471      583.868432     6     0     0     0     3
      2324.876957      489.854881      217.309508     1     0     0     0     8
       847.928527      100.320034      565.004263    24     0     0     0     7
       144.117799      427.785700      441.077595    16     0     0     0     7
       302.558305      107.290362       50.603789    11     1     0     0     7
      2124.613007        1.291410      534.713598     1     0     0     0     8
       899.698320      360.819157       39.441517    27     0     0     0     2
      2526.758075        3.658651      367.106201     1     0     0     0     7
       376.343309      118.543754      184.548688    12     1     0     0     4
      1080.728838       24.803649      117.607133    33     1     0     0     4
       154.253297      455.616287      178.489481    17     0     0     0     7
       587.789686      397.732423      520.579320    21     0     0     0     1
      2514.404603      411.542678      237.921566     1     0     0     0     4
      1744.272652      271.668780       29.417329     1     0     0     0     1
       485.615659      228.063894      486.351926    10     0     0     0     6
       895.318021      318.246729      399.891011    37     1     0     0     8
       185.046800       60.070147      552.267797    12     0     0     0     7
       969.159610      481.401545      556.561797    27     0     0     0     2
        53.893301       36.118091      127.113424     6     0     0     0     3
       663.153398      421.775937      489.717349    18     2     0     0     8
       533.978288      507.070192      403.847020    16     0     0     0     6
       312.115654       46.510248       22.234495    12     0     0     0     7
        28.596799      116.628884        8.129729     9     0     0     0     2
       205.329037      304.938566      258.275734     7     1     0     0     5
      1717.307148       74.019099      145.636326     1     0     0     0     7
      2547.363884       28.122186       81.661881     1     0     0     0     7
      2608.734397      342.168076        8.798314     1     0     0     0     7
        65.618299      446.086133      489.516980    12     0     0     0     5
       550.465776      176.221188       34.677813    10     0     0     0     2
       316.429233      152.115966      554.496994    13     1     0     0     3
       345.164529       83.149146       27.103866    12     2     0     0     7
      1047.694857      574.971478      302.658103    28     0     0     0     3
       376.693315        3.531437      455.495293    14     1     0     0     7
        38.210800      170.705523      362.447923     6     0     0     0     1
       137.441301      174.499595      247.942539    14     0     0     0     5
        21.255872      111.476505      550.672599    10     0     0     0     2
       164.740800      186.674473      145.439415     9     0     0     0     6
       123.924819      250.147096       83.437589    11     0     0     0     4
       747.730791      248.029724      380.398721    13     0     0     0     1
       275.881270      352.570645      182.736434    19     0     0     0     8
       798.940729      228.424821      482.893553    17     0     0     0     5
      2154.566707       70.411065      580.509277     1     0     0     0     8
       101.436027      320.157089      337.075095    11     0     0     0     1
       150.295598      165.098091      231.254952     6     0     0     0     7
        83.843755      432.776431      155.603848    12     0     0     0     1
      1887.498794       93.837625      327.905007     1     0     0     0     2
      1753.380563      217.748219       51.872918     1     0     0     0     7
      2748.317984      225.611360       64.821005     1     0     0     0     5
       662.140825      331.907154      311.811095    28     0     0     0     4
      1940.422410      174.237912      260.060598     1     0     0     0     4
       607.698320      582.342496      243.483707    16     1     0     0     8
       309.884530      225.369458      104.106297    12     1     0     0     1
       445.733604      572.357977      461.178020    13     1     0     0     8
      2049.983004      385.896522       18.193117     1     0     0     0     4
       587.432258      494.613901      382.735678    15     0     0     0     7
       148.428825      239.253033      254.616187    12     0     0     0     2
       423.660814      230.318364      237.688934    22     0     0     0     7
      2686.591860      541.257285      304.078956     1     0     0     0     3
        46.905801      188.339508      418.969198    15     0     0     0     6
       289.488298      141.637737      399.345573    12     0     0     0     8
      1045.595541      241.205692      131.128976    30     0     0     0     5
       232.764480      597.671401      563.286611    11     0     0     0     5
       761.149230       27.120886      356.937455    21     2     0     0     2
       236.297530       62.937013      544.429293     9     0     0     0     4
       400.823289      470.604100      267.309863    17     1     0     0     2
      2333.954531      309.222980      143.930780     1     0     0     0     4
       398.555803      546.564508      545.523382    16     0     0     0     3
       290.192495      385.520672      318.293074    19     0     0     0     3
      1230.767403      134.210527       78.705113     1     0     0     0     6
      1885.355025      261.981702      427.811763     1     0     0     0     2
       899.605846      446.107432      228.678004    18     0     0     0     2
       509.572922      151.052550      284.675656    13     1     0     0     5
        81.725438      531.614249      219.702465    14     0     0     0     7
      2040.821202      407.627556      188.935735     1     0     0     0     2
       428.438310      273.828564       50.453859    19     0     0     0     2
       289.683305      359.620016      402.668138    12     0     0     0     1
      1658.925236      592.802013      131.601316     1     0     0     0     1
       595.615291      493.862638      318.922171    12     0     0     0     3
      1755.668243      463.958161      224.330854     1     0     0     0     3
       402.573250      215.640191      448.649691    13     0     0     0     6
       126.275156       84.827571      535.114298     8     0     0     0     7
      2715.129839      541.715501       19.387502     1     0     0     0     8
       339.065813      546.603845      376.162937    22     1     0     0     7
       251.262760      226.774354      353.696437    11     0     0     0     3
       202.378297       18.686782       80.190693    14     0     0     0     6
       288.750810      575.626146      344.375239     9     0     0     0     4
       172.350730      368.666473      597.644604     6     0     0     0     7
      1813.827622      575.619750        6.794262     1     0     0     0     2
       359.631792      500.483450      278.217118     9     1     0     0     6
      1033.603151      593.680847      402.862535    24     0     0     0     8
      2380.073309      405.602561       56.729985     1     0     0     0     6
       281.408225      213.978378      577.468570    12     0     0     0     4
       369.210683      365.796306      586.887791    14     0     0     0     7
        67.767801      309.559928      493.498130     7     0     0     0     4
       207.693518      218.132110      115.982114    10     0     0     0     4
      1811.071297       47.725375      150.898148     1     0     0     0     1
      3594.613529       94.478204      316.293335     1     0     0     0     8
       657.653276      319.346729      489.556569    20     0     0     0     2
      2145.988901      399.196608      209.435384     1     0     0     0     3
      1754.401747      208.818360       81.563636     1     0     0     0     6
       281.894199       82.604537       23.702067    11     0     0     0     1
      1549.256192      454.707422      552.695624     1     0     0     0     3
       500.756011       86.602784      189.905360    11     0     0     0     5
       303.500810      142.459303      284.271542    13     1     0     0     5
       215.086115      101.385019      487.819857    13     1     0     0     6
        47.411298      546.517655      404.964081     6     0     0     0     6
       117.722501      175.538863      360.865951    12     0     0     0     2
        43.790933      219.124863      180.079492     9     0     0     0     1
       407.271948      520.531717      213.354861    17     0     0     0     6
      2109.900296      484.293555      229.129200     1     0     0     0     8
       171.430803      126.147616        0.037727    11     0     0     0     6
      1104.260029      536.253917       47.771768    28     0     0     0     8
      1930.848781      311.770411      159.231636     1     0     0     0     7
       277.122259      522.772606      169.152329     6     0     0     0     2
        44.691801      424.538213      596.717198     7     0     0     0     7
       354.047819      559.613046      141.213519     8     0     0     0     4
      1760.987389      301.865226      171.466209     1     0     0     0     1
       250.768297      556.598442      132.384248     9     0     0     0     3
       346.778306      192.478400      560.408475    18     0     0     0     8
       723.875633       96.523286      208.193443    12     0     0     0     7
        74.046524      361.792631      452.197580    11     0     0     0     2