ITEM: TIMESTEP
0
ITEM: NUMBER OF ATOMS
        4471
ITEM: BOX BOUNDS pp pp pp
  0.0000000E+00   5000.00000000000     
  0.0000000E+00   600.000000000000     
  0.0000000E+00   600.000000000000     
ITEM: ATOMS x y z nV nH f3 f4 orient
      2056.512631      180.950725      171.945840     1     0     0     0     1
      1736.290821       30.396415      528.664275     1     0     0     0     1
        41.160799      251.752813      200.747680    10     0     0     0     1
       595.428300      139.794378      251.624434    14     0     0     0     8
       257.343294      504.170947      229.852752     9     0     0     0     4
       446.786971      317.719323      464.417252    16     0     0     0     8
       160.150804      375.260856       54.396930    10     0     0     0     6
       181.153306      449.558845      150.871350    12     0     0     0     5
       421.608640      480.015097      196.071483    13     1     0     0     1
       231.168880      245.670822      349.439355     8     0     0     0     3
       139.308496       99.708753      169.426930    10     0     0     0     1
       514.880296       86.670565      446.300282    14     0     0     0     2
       430.713304      441.551465       39.649122     9     0     0     0     4
       531.028276      594.382082      368.220364    17     0     0     0     6
       734.027822      269.100598      142.843104    23     0     0     0     6
      1733.016253      106.843428      202.037016     1     0     0     0     2
       110.673077       71.288717      536.466529    10     0     0     0     1
       105.885875      522.907082      441.653933    13     0     0     0     6
      1289.788359      577.187597      361.008927    65     0     0     0     3
       326.283311      225.884091       58.695023     9     0     0     0     5
       154.238298      344.806358       77.683160     6     0     0     0     6
       131.957164      178.736550      122.071208    13     0     0     0     5
       534.111217      204.642221      376.766239    12     0     0     0     4
      1043.885679      374.146949      182.000045    27     0     0     0     5
       380.183891      337.894376      474.857439    14     0     0     0     1
      1984.071505      448.658922      546.771034     1     0     0     0     3
      1005.297437      279.204472       95.679507    20     0     0     0     2
      2169.718000      141.016568      131.234544     1     0     0     0     2
       203.460802      489.485335       63.917454    19     0     0     0     5
       678.858171       89.182449      227.812011    18     0     0     0     2
      2099.719793      317.270107      498.624125     1     0     0     0     3
      1302.834312      356.998822       82.652673    63     0     0     0     5
       219.145788      199.125693       29.624021    14     0     0     0     1
       136.030794      472.989603      297.446467     7     0     0     0     1
       323.281262      237.398901      494.170471    11     0     0     0     5
      1708.784812      144.771460      124.245373     1     0     0     0     7
      2034.250988        3.091284      130.531413     1     0     0     0     5
      1541.343317      522.758139       58.728137     1     0     0     0     1
        98.373300      175.691809      360.734750    10     0     0     0     6
        69.651121      329.486445      363.625500     8     0     0     0     8
       149.395799       81.770933      160.203020    12     0     0     0     4
      2435.053964      308.393088      168.983030     1     0     0     0     5
        58.053300      184.035222      162.940177     8     0     0     0     8
        94.065797      466.934333      370.739023     7     0     0     0     2
       152.597736      582.699923      401.446146    14     0     0     0     8
      1213.588178       25.206684      391.649948    39     0     0     0     3
       548.553245      135.625562       55.895581    11     0     0     0     8
      2108.260292      207.832858       91.188662     1     0     0     0     8
       232.065788      149.307865      337.649059     6     0     0     0     8
       259.981372      309.094888      464.767279     8     0     0     0     2
       793.268200      272.267475       71.263582    17     0     0     0     4
       392.385683      244.201185      186.776112    10     0     0     0     4
      1923.251221      227.520124      245.622550     1     0     0     0     4
       889.778276       89.465004      314.173783    30     0     0     0     3
       513.090806       19.210055      542.081878    13     0     0     0     2
       139.301301      267.583643      383.489346    16     0     0     0     8
       473.930370      189.462244      296.487130    17     0     0     0     3
       224.616878      261.004000      383.353085    12     0     0     0     3
      1218.471797      350.497214      298.480620    24     0     0     0     4
        54.139290      380.941849       43.755961     7     0     0     0     4
       206.085277      152.704068      532.383447    11     0     0     0     3
        80.080797      533.022306      538.262307    15     0     0     0     3
      1039.010974      283.188611      110.834982    31     0     0     0     5
       465.600786      354.437043       47.847103    19     0     0     0     3
       169.728303      429.826592      447.949957    14     0     0     0     7
       102.145097      189.706187      459.899408    12     0     0     0     2
       362.725786      439.298357       86.387569    12     0     0     0     1
       121.973149      176.893952      151.343361     6     0     0     0     1
        99.958381      112.986360      342.913672     6     0     0     0     8
      2012.867408      179.220849      571.809532     1     0     0     0     8
      2121.933525      226.648342       27.946464     1     0     0     0     6
       678.068315      341.471278      457.806338    15     0     0     0     8
       261.629863      520.466537      488.983214    10     0     0     0     8
        73.435007      525.119306      458.464668    10     0     0     0     6
        54.005375      458.417522       23.843770     8     0     0     0     2
       756.205827      173.738497      504.630133    10     0     0     0     6
       355.601140      365.678759      202.465470    13     1     0     0     8
       575.880815       16.005159      597.926824    21     0     0     0     8
       414.188646      309.083062      596.081989    21     0     0     0     7
      2278.816353      486.379104      553.126660     1     0     0     0     5
       255.825878      540.569151      553.441992    10     0     0     0     6
       510.187803      465.756699      250.707573    12     0     0     0     7
       528.518383       79.583436      168.924861    13     0     0     0     4
      2440.243968       47.128231      388.760918     1     0     0     0     6
        36.419962      408.036409       49.280256     7     0     0     0     4
       234.753297      402.887710      124.534488     7     0     0     0     4
       259.695802      204.238510      445.806315    10     0     0     0     4
       603.558893      354.815383       92.810181    13     0     0     0     8
        50.508224      209.693226      189.090193     8     0     0     0     4
        79.075799      398.126314      188.916273    16     0     0     0     2
       335.955797      240.588758       59.947946     8     0     0     0     5
       555.618458      506.963660      163.023827    14     0     0     0     7
      1785.102009      354.580415       14.266688     1     0     0     0     8
       279.548296      172.550994      526.327202     4     0     0     0     2
       102.236022       66.785705      355.963781    15     0     0     0     8
      1816.934977      204.204844      404.117362     1     0     0     0     1
       451.567018      275.156992      489.895295    10     0     0     0     5
      1371.771792       64.226888      180.287399    63     0     0     0     2
       119.615800       92.810470      329.446009    13     0     0     0     2
       249.900578      472.754176      346.999097    11     0     0     0     3
       773.166831      531.307181      295.029856    22     0     0     0     7
        97.813373       18.694797      298.000987     8     0     0     0     7
       617.268736      442.066517      212.936708    20     0     0     0     4
       182.733438       15.490428      154.535809     6     0     0     0     2
       533.363298      566.786130      144.633176    20     0     0     0     8
       127.858190      342.084625      234.849879     7     0     0     0     6
        44.785799      260.962472      265.476717    10     0     0     0     4
       381.750952      585.009318      549.024543    12     0     0     0     6
      2637.532041      558.665608      264.514585     1     0     0     0     1
       662.894248      170.283555       96.085122    15     0     0     0     2
       296.144304      365.477618       23.748080    11     0     0     0     2
       214.718223      484.444000        1.881816    10     0     0     0     8
       203.526101      251.513407      498.302023    11     0     0     0     6
       175.124300      138.633836      248.616420     6     0     0     0     4
       808.644695      268.116635      595.589818    24     0     0     0     2
       120.884568      282.777091      351.450181     8     0     0     0     6
       111.880792       10.038395      345.731950    12     0     0     0     2
      1872.249561      411.841491      189.171648     1     0     0     0     3
       328.739305       24.081821      223.737878    11     0     0     0     4
       622.761329      107.161852       86.069880    10     0     0     0     6
       229.738735      476.486384      493.496560     9     0     0     0     7
       638.598777      261.346520      585.163931    15     0     0     0     2
       253.898302      190.703990      424.644872     9     0     0     0     7
      2935.790486      163.045018      139.302087     1     0     0     0     3
      2513.018699      520.800743       41.057411     1     0     0     0     1
        45.440207      153.156210      224.041954    19     0     0     0     3
      1648.930625      201.922470      591.735074     1     0     0     0     4
       302.540788      325.555408        9.678418    20     0     0     0     4
       212.453294      478.294749      164.509903    11     0     0     0     4
      1460.416101      174.357720      453.042721     1     0     0     0     5
       539.424941      241.958834      519.916704    14     0     0     0     6
      1410.966519      395.103103      573.117886    77     1     0     0     3
      2345.600836      254.500081      306.873446     1     0     0     0     8
       153.540672      272.881835      500.402714     9     0     0     0     3
       963.466874      191.979576      373.147104    24     0     0     0     6
       785.633317      302.872058      355.432801    15     0     0     0     4
      2293.278284      478.684988       91.029427     1     0     0     0     6
        67.230798      394.556411      450.855465    10     0     0     0     7
        24.339799      111.746130      371.403501     9     0     0     0     2
      2001.914440      299.157835      224.584495     1     0     0     0     3
       130.470631      109.284248       56.742043    10     0     0     0     8
       744.749831      548.675451       76.343705    13     0     0     0     6
       114.348802      516.736389      104.715247    16     0     0     0     8
      2348.840407      138.745998      409.815689     1     0     0     0     2
       382.437273       14.434678       78.674901    11     0     0     0     5
       376.684354      464.539694      503.809371    11     0     0     0     8
      1587.060775      221.716888      241.847756     1     0     0     0     5
       646.554826      113.199799       29.928608     6     0     0     0     3
       929.007355      417.424456      553.168291    18     0     0     0     2
       563.351345      105.542315      591.276951    10     0     0     0     2
      1347.206947      365.872192       39.065534     1     0     0     0     3
       243.320299      328.171241      108.976873    19     0     0     0     5
       388.466000      379.680822      285.899142    11     0     0     0     5
       453.319888      530.030071      438.445400    10     0     0     0     1
       155.722171      288.346266      210.239939     8     0     0     0     3
       790.937347      177.529987      319.707696    23     0     0     0     1
       782.959515      106.744824      556.490745    19     0     0     0     4
        76.857946       73.570319      115.957817     6     0     0     0     7
       732.125810      261.021909      113.700094    18     0     0     0     6
       913.427047      216.788141      575.379464    12     0     0     0     2
       508.015008      398.542729      167.058322    18     0     0     0     6
       786.233171      228.350617       60.166912    20     0     0     0     5
       912.073320      144.176114      500.192215    27     0     0     0     1
       155.384153      438.299905       82.888919    14     0     0     0     6
       274.953813      239.055554       52.050098    14     0     0     0     5
       473.987291       71.900993      387.745365    23     0     0     0     7
      1554.719653      533.473432      507.322118     1     0     0     0     8
       786.599214      127.961271        0.769725    19     0     0     0     4
      1135.701897      448.691997      143.461248    53     0     0     0     8
       169.596874      427.786207      143.476122     7     0     0     0     4
       124.035605      593.124105      239.946946    12     0     0     0     8
        91.808368      327.757634      167.242791    10     0     0     0     6
      2239.682237       82.772716      353.649238     1     0     0     0     7
       384.013378      165.611655      452.796061    15     0     0     0     6
       551.105298      533.874282      581.227096     9     0     0     0     7
       185.368303      171.726278      323.672046     9     0     0     0     5
       329.512713      253.435176      170.980774     9     0     0     0     7
       485.615659      228.063894      486.351926    10     0     0     0     5
       340.008287      329.981525      106.700250     6     0     0     0     7
        36.183799      597.870201      317.317910    10     0     0     0     4
        77.492899       45.756497      492.838448    10     0     0     0     1
       336.102810      193.845117       10.869413    12     0     0     0     2
       182.457725      273.158986      594.968282     6     0     0     0     4
       368.731245      232.119993      245.437660    12     0     0     0     3
       806.211478      551.099930       11.701164    23     0     0     0     1
      3220.049441      192.101701      261.537851     1     0     0     0     3
      1136.171508      536.563306      531.390060    45     0     0     0     7
        47.040800       48.754523      256.853337    15     0     0     0     2
      1820.126406       34.057475      147.873090     1     0     0     0     2
        32.676799      359.614038      145.948611     8     0     0     0     5
      2324.287140      188.572222      537.482802     1     0     0     0     8
       845.948320       17.998455       19.472801    25     1     0     0     6
       728.117428       63.763110       59.145458    13     0     0     0     4
      2108.678163       13.387099      414.879680     1     0     0     0     4
      1585.614429      358.651341      131.517144     1     0     0     0     7
       684.280778      506.634225      572.921228    20     0     0     0     4
       481.717677      385.501669      146.862514    10     0     0     0     1
       890.462378      261.524918      140.293048    20     0     0     0     1
       304.425798      435.745303      267.118560    12     0     0     0     2
      2443.280937       99.242130      432.158351     1     0     0     0     4
      1928.302945      116.270425      288.157829     1     0     0     0     5
      2269.958952      441.190154      580.959323     1     0     0     0     4
       356.285295      325.021820       89.871349    15     0     0     0     1
       823.718217       69.853159      100.126482    20     0     0     0     6
       390.262275      131.902635      245.209952     8     0     0     0     5
       435.585802       40.217724       24.028077    13     0     0     0     2
       494.175798      163.712313      381.307886    18     0     0     0     6
       151.254924      357.752117      409.272187    12     0     0     0     7
       953.370805      211.139158      114.389910    22     0     0     0     5
       301.733379      193.982186      223.807671    14     0     0     0     5
       548.053300       11.917665      175.481565    17     0     0     0     8
        57.415800      111.976367       51.987346    10     0     0     0     3
       687.665788      420.382568       33.152644    15     0     0     0     3
      2910.921507      559.889250      181.955027     1     0     0     0     5
       134.348299       16.378360       62.123113    12     0     0     0     6
      2579.269941      470.519499      160.174749     1     0     0     0     8
       143.510805      464.163423      241.795918    13     0     0     0     2
       511.765794      597.577097      385.024851    10     0     0     0     2
        25.160800      424.457893      428.378949     6     0     0     0     8
       143.408718      438.752629      359.354206     7     0     0     0     8
       221.083056       39.879602      372.077414    13     0     0     0     6
       323.890794      245.379020      159.723906    11     0     0     0     8
      2041.477462      457.060496      517.658478     1     0     0     0     3
        39.058301      549.576020       41.980779     9     0     0     0     1
       225.247366      307.303017      411.758018     6     0     0     0     8
      1643.867701      292.495667      268.397620     1     0     0     0     3
      1596.026243      324.405544      101.734520     1     0     0     0     1
      2000.202697      434.084728      163.915553     1     0     0     0     8
       281.715665      183.453892      100.470789    16     0     0     0     2
       210.561858      325.331708       58.037921     7     0     0     0     8
       108.015802      319.128653       23.837363    10     0     0     0     2
        41.702299       16.893936      126.913884     8     0     0     0     8
      2576.926970      433.710907      236.459658     1     0     0     0     1
       330.152299      543.409111       56.723540    17     0     0     0     1
       296.479036      172.508184       32.652962    10     0     0     0     8
      1738.584554      520.882581       91.539301     1     0     0     0     6
       118.790526      554.510155      581.766514    10     0     0     0     1
       112.575729      384.544263      566.200719    13     0     0     0     7
      2453.352661      136.039620       41.112553     1     0     0     0     5
        50.184801      158.269390      516.957928     8     0     0     0     6
        49.058301      348.230167      287.119804     9     0     0     0     8
       287.205797       79.562705       55.959127    13     1     0     0     3
       967.580827      224.646350       61.756027    24     0     0     0     1
       144.081218      566.266076      364.854185     7     0     0     0     8
       440.000810      418.009652      582.135428    11     0     0     0     6
       158.030036      396.747320      296.086424     8     0     0     0     3
       393.123308      348.818133      196.136807    17     0     0     0     5
       835.484606      503.016434       90.143836    25     0     0     0     2
       121.336116       30.534843       31.032560    16     0     0     0     1
       229.725801      353.855165       31.055127    16     0     0     0     7
       603.950368      343.425054      578.306461    24     0     0     0     5
       806.889091      114.052819      238.163512    16     0     0     0     2
        65.790874      501.436549      262.244447    10     0     0     0     7
       318.109395      598.243616      116.916657     9     0     0     0     2
       100.350723      530.048237      437.220191     7     0     0     0     7
       177.746294       76.962802      359.247987    13     0     0     0     3
      1985.980061      487.831509      378.446903     1     0     0     0     6
      1733.308454      369.960622       47.266583     1     0     0     0     1
       171.336793       34.018815      548.973083    13     1     0     0     1
      2037.119341      363.172745      501.595512     1     0     0     0     7
       254.083299      100.294067      289.920185    15     0     0     0     1
       752.600786       10.839189       50.870507    27     0     0     0     4
       601.447218      469.501577      373.576647    15     0     0     0     1
       120.144800      587.514429      506.267241     8     0     0     0     4
      1989.977776       75.938276      120.243605     1     0     0     0     4
      1185.467754      558.925051      596.616532    54     0     0     0     6
       219.678300      134.266890      294.164989    13     1     0     0     8
       331.803300      564.017470      417.182349    14     0     0     0     4
       555.385442      460.641887      321.518254     5     0     0     0     8
       219.085170        8.269640       32.106405    11     0     0     0     4
        55.385875      585.151665       86.751333    16     0     0     0     2
      2428.041881      405.176288      544.550443     1     0     0     0     2
       352.943315      199.741431      583.463375    14     0     0     0     8
       368.408311      417.124403      437.635817    22     0     0     0     7
      1637.201021      508.383147      222.590101     1     0     0     0     8
      1863.812248      182.380396      407.601227     1     0     0     0     4
      2229.688510      147.687803       11.740211     1     0     0     0     3
      3417.246399      339.705695      141.069286     1     0     0     0     7
       150.900804      236.432249      185.889530    13     0     0     0     2
       282.881435      350.043418      516.329442    13     0     0     0     5
       377.860796      451.256472      553.299710     9     0     0     0     4
      2433.075361      501.036249      274.812549     1     0     0     0     7
      2116.950178      442.467811       20.050199     1     0     0     0     5
        63.993526      428.002668      560.255876    16     0     0     0     5
       272.934715       29.723311      224.805500    17     0     0     0     1
       264.855087      593.411704      573.609695    12     0     0     0     8
       159.933305        4.285097      598.615408    13     0     0     0     4
       237.620805      171.798408      565.271606    18     0     0     0     1
       223.359804       68.802211       34.402002    13     0     0     0     4
      1112.955766      234.887897      359.472249    48     0     0     0     8
      1323.837308      480.436762      596.820080     1     0     0     0     4
       140.538301      165.502876      192.507587    10     0     0     0     1
      1260.568078      169.893427       42.201259    82     0     0     0     4
       169.400842      247.459265      360.761750    10     0     0     0     3
       152.085802      142.455872      150.399977    14     0     0     0     2
       201.255800      169.639916      360.704560     9     0     0     0     3
        52.081548      299.013051      425.149518     9     0     0     0     2
      1918.048342      137.870343       67.555242     1     0     0     0     5
      2957.344962      415.230788      244.511630     1     0     0     0     7
      2131.832513      495.004749      538.500303     1     0     0     0     5
        91.434293       17.601086      469.003716    14     0     0     0     7
       270.568424      157.444931      437.601197    19     0     0     0     5
      1968.309694       32.000418       32.132998     1     0     0     0     5
       318.518297      249.824443      264.230686    17     0     0     0     3
      2262.306515      351.024156      592.641360     1     0     0     0     2
       403.201419      581.063289      534.285335     9     0     0     0     8
       531.043291      209.335251      218.753162    15     0     0     0     8
        94.881948      143.929972      300.421014    17     0     0     0     8
       588.310808      287.185215      448.036259    26     1     0     0     8
       744.660783       13.507322      195.044665    20     0     0     0     1
       171.627794      318.639031      331.514304    17     0     0     0     7
      1259.931193      486.298984      226.696239    30     0     0     0     4
       815.237672      235.032736      350.218819    15     0     0     0     5
       211.625795      539.943033       75.227491    11     0     0     0     3
        32.082799      374.374332      129.471415    10     0     0     0     3
      1599.449160       48.742511      214.610461     1     0     0     0     1
       492.015794      572.297367      442.994305    10     1     0     0     7
       316.232510       26.494415      205.501018    16     0     0     0     1
       412.851651      581.514282       95.805634    10     0     0     0     2
      2119.706256      564.621361      436.715189     1     0     0     0     4
       556.565812      322.278968      397.015990    14     0     0     0     2
       233.285452      211.257095      379.520834    12     0     0     0     6
        69.420801      344.083044      128.262129    18     0     0     0     6
       106.724177       36.478057       57.453018     9     0     0     0     4
      2816.643711       66.135220      423.960278     1     0     0     0     7
        51.765798      454.733958      494.542521    19     0     0     0     3
        52.275456      379.785530      512.529314     5     0     0     0     5
      1548.201539      169.552709       67.452339     1     0     0     0     5
       267.453294      228.244209      558.780809    15     0     0     0     5
        59.907684      348.180899      331.181825    10     0     0     0     4
      1784.163988      577.670172      129.270567     1     0     0     0     5
      2239.644834      405.620414      375.746505     1     0     0     0     5
      2073.076430        3.015553       16.953743     1     0     0     0     6
      2669.296551      545.048010      330.011360     1     0     0     0     8
        61.556025      497.640678      390.324828     8     0     0     0     5
       157.880382      307.340307      501.414586     7     0     0     0     6
        17.553300      246.621809      492.116071     8     0     0     0     4
       515.309620      310.515767      489.980940    17     0     0     0     6
       696.890936      520.196540      205.512032    15     0     0     0     1
      2393.423310      378.610652      203.558694     1     0     0     0     1
        48.916370       57.691003       87.725110    13     0     0     0     2
       498.972795       63.322751      418.191122    10     0     0     0     2
       702.525774      573.840313       40.597313    19     0     0     0     7
        41.975833      423.596671       43.217109     6     0     0     0     6
       252.235796      467.082455      460.953672    15     0     0     0     3
       183.282793      295.673536      498.072185    16     0     0     0     5
      2161.315647        9.978376      106.423086     1     0     0     0     7
       883.073320      254.175899      201.804265    17     0     0     0     5
       258.212985        0.040432      268.323841    22     0     0     0     5
       743.075822      402.833331      446.863043    15     0     0     0     4
       235.897848      444.649605      510.147666    12     0     0     0     4
       746.594762      450.732094       75.982743    10     0     0     0     8
       618.780778      542.646768      344.869007    19     0     0     0     8
       140.186573      535.624983       49.896708    11     0     0     0     4
       908.308305      247.466989      250.540404    19     0     0     0     3
       163.163793      561.290851      326.110592     8     0     0     0     1
        53.268301      422.554781      486.744966     8     0     0     0     2
       308.055576      245.023457       60.313239     7     0     0     0     4
       197.338147      172.560983      260.983197    11     0     0     0     7
       447.170139       67.762136      570.278382    16     0     0     0     5
      1924.186181      132.342685      346.917271     1     0     0     0     1
      1783.181166      138.171806       45.343199     1     0     0     0     1
       559.550400      166.310413       57.831713    13     1     0     0     4
      2672.196730        4.941679      115.962833     1     0     0     0     8
        25.795801       86.314264      288.005575    10     0     0     0     2
       940.045965      193.287931      363.497585    21     0     0     0     3
       240.039000      542.618664      322.286606     7     0     0     0     8
      1705.401477       59.287500      145.902677     1     0     0     0     2
        74.808872       65.379475      251.889313    11     0     0     0     3
      2769.945836      102.976455       15.752674     1     0     0     0     8
       406.125810      541.345054       53.657102    16     0     0     0     4
       195.933516      351.934663      225.227752    21     0     0     0     1