ITEM: TIMESTEP
0
ITEM: NUMBER OF ATOMS
        4461
ITEM: BOX BOUNDS pp pp pp
  0.0000000E+00   5000.00000000000     
  0.0000000E+00   600.000000000000     
  0.0000000E+00   600.000000000000     
ITEM: ATOMS x y z nV nH f3 f4 orient
      2055.914286       86.715763      128.091800     1     0     0     0     7
      2066.801968      139.391756      531.273443     1     0     0     0     8
        41.160799      251.752813      200.747680    10     0     0     0     1
       742.278276      248.083258      325.126777    17     0     0     0     3
       348.543047      442.384127      255.822287     9     0     0     0     1
       401.760306      231.485250      407.832079    11     0     0     0     7
       160.150804      375.260856       54.396930    10     0     0     0     6
       181.153306      449.558845      150.871350    12     0     0     0     5
        70.853303       32.650568      471.470641     6     0     0     0     4
       231.168880      245.670822      349.439355     8     0     0     0     3
       139.308496       99.708753      169.426930    10     0     0     0     1
       447.380815      120.132353      482.987445    26     0     0     0     3
       607.138443      284.841340      321.086944    13     0     0     0     8
       511.765794      597.577097      385.024851    10     0     0     0     2
       734.462781      301.757007      320.530375    10     0     0     0     1
      1769.261660      422.023115      120.977325     1     0     0     0     5
       110.673077       71.288717      536.466529    10     0     0     0     1
       136.488298      453.554372      505.340619    10     0     0     0     4
      1614.580434      479.789307      236.061427     1     0     0     0     4
       326.283311      225.884091       58.695023     9     0     0     0     5
       154.238298      344.806358       77.683160     6     0     0     0     6
       272.488893       55.077964       57.263460     8     0     0     0     7
       568.058305      448.495736      599.691371    15     0     0     0     4
       971.465066       86.058339      483.943262    42     0     0     0     4
       304.903091      364.797603       15.783026    10     0     0     0     1
      1992.701978      416.245669      492.905646     1     0     0     0     6
      1019.297528      185.122749      504.747509    38     0     0     0     7
      1672.837744      326.665474      164.914840     1     0     0     0     3
       203.460802      489.485335       63.917454    19     0     0     0     5
       908.308305      247.466989      250.540404    19     0     0     0     5
      2048.429253      256.024712      550.065209     1     0     0     0     3
      1671.160483      118.462685      155.512468     1     0     0     0     3
       219.145788      199.125693       29.624021    14     0     0     0     1
       136.030794      472.989603      297.446467     7     0     0     0     1
       712.503368      186.612847      141.719441    15     0     0     0     4
      1662.671957      177.980612      144.320102     1     0     0     0     5
      2073.400094      136.502081       82.476950     1     0     0     0     2
      1289.788359      577.187597      361.008927    65     0     0     0     5
        98.373300      175.691809      360.734750    10     0     0     0     6
        69.651121      329.486445      363.625500     8     0     0     0     8
       384.434407       38.147059      235.365339    18     0     0     0     2
      2414.798339      151.875834      234.320665     1     0     0     0     8
        58.053300      184.035222      162.940177     8     0     0     0     8
       104.398302      449.975522      381.075984    14     0     0     0     4
       175.769031      562.873740      413.772172     8     0     0     0     5
      1141.418086      498.877811      171.405983    39     0     0     0     6
       634.336153      137.065879      145.219992    11     0     0     0     7
       446.439381      269.736945      362.190067    12     0     0     0     1
       278.975297      176.342479      312.835756    10     0     0     0     2
       259.981372      309.094888      464.767279     8     0     0     0     2
       590.811794      242.336984      159.003930    13     0     0     0     4
       441.400804      238.609407      260.172231    24     0     0     0     7
      2130.731117      560.642738       75.413693     1     0     0     0     3
       801.263322      558.381262      421.830046    22     0     0     0     7
       521.196781      564.124275      421.791313    15     0     0     0     8
       139.301301      267.583643      383.489346    16     0     0     0     8
       599.133091      181.212708      137.320131    19     0     0     0     7
       191.868806      257.096443      400.453281    10     0     0     0     6
       773.425798      491.214304      196.122207    30     0     0     0     5
        54.139290      380.941849       43.755961     7     0     0     0     4
       206.085277      152.704068      532.383447    11     0     0     0     3
        64.549043      516.650072      567.618198    11     0     0     0     3
      1046.110817      484.107824      104.653012    35     0     0     0     8
       631.570817      498.681567      232.932067    14     0     0     0     6
       169.728303      429.826592      447.949957    14     0     0     0     7
       139.433673      227.369842      438.825509    20     0     0     0     7
       333.843309      393.930968       32.614922    14     0     0     0     5
       121.973149      176.893952      151.343361     6     0     0     0     1
        99.958381      112.986360      342.913672     6     0     0     0     8
      1873.600824       74.770911      499.011090     1     0     0     0     7
      2132.492724        5.525432      392.808979     1     0     0     0     5
       931.378423      291.667554      528.077768    33     0     0     0     7
       262.893297      590.549350      490.876430    15     0     0     0     4
        73.435007      525.119306      458.464668    10     0     0     0     6
        54.005375      458.417522       23.843770     8     0     0     0     2
       584.698657       53.605450      517.634383    22     0     0     0     4
      1356.373731      493.634874      566.238967    58     0     0     0     2
       592.983083      526.444360      511.815660    16     0     0     0     4
       508.015008      398.542729      167.058322    18     0     0     0     8
      2326.293598      331.286772      477.163068     1     0     0     0     1
       264.855087      593.411704      573.609695    12     0     0     0     6
       528.518383       79.583436      168.924861    13     0     0     0     5
       447.294024       64.748702      207.293249     8     0     0     0     2
      1891.713201      464.627184      142.819011     1     0     0     0     4
        36.419962      408.036409       49.280256     7     0     0     0     4
       208.710520      395.253831      163.402404    13     0     0     0     7
       259.695802      204.238510      445.806315    10     0     0     0     4
      1492.540926      360.394556      146.791085    69     0     0     0     6
       208.025301      182.574877      111.684709    12     0     0     0     6
        79.075799      398.126314      188.916273    16     0     0     0     2
       346.654182      255.945704       84.797883    16     0     0     0     4
       520.630815      417.147843       84.319915    18     0     0     0     7
      1548.449754      188.437048      326.318086     1     0     0     0     3
       223.765794      151.440477      544.323283     9     0     0     0     1
       110.138465      593.022134      425.163980    11     0     0     0     5
      1805.781588      258.527491      572.383985     1     0     0     0     3
       355.780992      321.871685      441.890711    16     0     0     0     5
      1614.908770       15.773688      401.026515     1     0     0     0     2
       119.615800       92.810470      329.446009    13     0     0     0     2
       176.510805      489.124431      395.118733    14     0     0     0     8
       621.529361      368.702381      326.965332    13     0     0     0     2
       121.530347      594.741072      254.219579    11     0     0     0     3
       537.566070      287.590117      269.448678     5     0     0     0     1
        86.982797      597.364840      204.413160    14     0     0     0     6
       516.483293      555.650220       49.650899    16     0     0     0     5
       127.858190      342.084625      234.849879     7     0     0     0     6
        44.785799      260.962472      265.476717    10     0     0     0     4
       381.750952      585.009318      549.024543    12     0     0     0     6
      2615.375993      587.151955      153.734347     1     0     0     0     7
       675.153276      131.194249        7.824535    19     0     0     0     3
       296.144304      365.477618       23.748080    11     0     0     0     2
       214.718223      484.444000        1.881816    10     0     0     0     8
       203.526101      251.513407      498.302023    11     0     0     0     6
       175.124300      138.633836      248.616420     6     0     0     0     4
       817.265825      304.944725       56.581968    25     0     0     0     5
       120.884568      282.777091      351.450181     8     0     0     0     6
        84.365870      560.084973      319.823223    13     0     0     0     8
      2103.430703      393.239550      430.189925     1     0     0     0     8
       329.865800      456.216860      225.713734     6     0     0     0     4
       573.945817      132.769896      580.417173    16     0     0     0     5
       229.738735      476.486384      493.496560     9     0     0     0     7
      2252.071400      197.444431       62.838824     1     0     0     0     1
       215.075671      188.748993      352.542269     8     0     0     0     6
      2601.173222      246.740849      492.732876     1     0     0     0     8
      1994.673921      126.082502       86.961179     1     0     0     0     6
        45.440207      153.156210      224.041954    19     0     0     0     3
      1599.870805      200.339896      542.675255     1     0     0     0     6
       302.540788      325.555408        9.678418    20     0     0     0     4
       212.453294      478.294749      164.509903    11     0     0     0     4
      1318.370184      180.473055      327.738897    54     0     0     0     3
       485.615659      228.063894      486.351926    10     0     0     0     3
       189.428782      502.558980      555.578320     7     0     0     0     5
      1967.333424      314.367772      154.097769     1     0     0     0     3
        89.531297      267.407050      487.599535     7     0     0     0     7
      1044.677048      151.591026      576.182189    35     0     0     0     7
       785.633317      302.872058      355.432801    15     0     0     0     4
      2145.812044      206.243072      597.497038     1     0     0     0     5
        96.563303      422.174846      464.872303     8     0     0     0     6
        24.339799      111.746130      371.403501     9     0     0     0     2
      1366.039036      105.938618      517.582751     1     0     0     0     6
       119.208076      139.213147       14.518541    11     0     0     0     3
       772.933571      226.922927      254.420913    20     0     0     0     7
       209.046598      578.720696       21.826076    11     0     0     0     4
      2255.337606      387.604024       98.551947     1     0     0     0     4
       296.960802       39.298337      107.141144    15     0     0     0     1
       415.090841      493.335593      586.150451    13     0     0     0     8
      1799.125802      373.644071      219.691708     1     0     0     0     1
       467.213408      161.413070      462.016563    10     0     0     0     4
       794.630815      366.889229      376.234826    19     0     0     0     4
       563.351345      105.542315      591.276951    10     0     0     0     2
      1220.900672      521.737458      319.495762    47     0     0     0     5
       174.565970      307.166231       63.756920     7     0     0     0     7
       418.015794      412.162299      336.188450    20     0     0     0     4
       477.012681      433.065298      452.529292     9     0     0     0     1
       155.722171      288.346266      210.239939     8     0     0     0     3
      1151.219070      470.911724      309.273336    47     0     0     0     7
       807.618109       91.625823      472.859530    16     0     0     0     4
       205.908800       74.119382      106.350453     7     0     0     0     8
       559.603849      406.299036      290.053819     9     0     0     0     7
       761.149230       27.120886      356.937455    21     0     0     0     5
       475.314361      420.671224      405.358566    15     0     0     0     7
       754.965776      250.219939       78.920573    17     0     0     0     7
       586.918180      506.709143      249.590913    12     0     0     0     3
       249.554221      527.788559      131.654946    14     0     0     0     3
       314.925656      179.423108      104.427855    11     0     0     0     2
       495.832800       40.683291      474.079295    15     0     0     0     5
      1436.026542      525.560558      196.933311     1     0     0     0     1
       773.809527      265.482295      181.515892    16     0     0     0     3
      1135.864042      579.128600      459.484723    43     0     0     0     1
       169.596874      427.786207      143.476122     7     0     0     0     4
       207.692379      583.007210      179.387609    17     0     0     0     4
        91.808368      327.757634      167.242791    10     0     0     0     6
      2095.785210       97.453827      410.196269     1     0     0     0     6
       534.111217      204.642221      376.766239    12     0     0     0     7
       500.658311       64.970323      596.937869    16     0     0     0     8
       222.633898      161.502793      362.929235    14     0     0     0     4
       309.400804      114.554673      196.624334    16     0     0     0     6
       641.893327       30.434818      444.568620    24     0     0     0     6
       295.062791      350.267158      156.729282    13     0     0     0     1
        80.093453      554.381070      325.019924    10     0     0     0     1
        77.492899       45.756497      492.838448    10     0     0     0     1
       277.309843      295.038060       39.135524    10     0     0     0     5
       220.214985      272.731090       53.627290    11     0     0     0     8
       371.286876      252.622286      264.004362    18     0     0     0     5
       985.415543      183.071691      514.329791    29     0     0     0     4
      3042.248246      506.411895      493.357205     1     0     0     0     1
      1242.290003      367.840390      212.089086    22     0     0     0     2
        47.040800       48.754523      256.853337    15     0     0     0     2
      1799.978195      132.807788      200.080576     1     0     0     0     6
        32.676799      359.614038      145.948611     8     0     0     0     5
      2331.336916      571.222484      138.265928     1     0     0     0     2
      2013.588425      319.727329      217.732101     1     0     0     0     6
       751.830883       56.622438      471.969650    20     0     0     0     6
      2048.540320      597.561351      449.696326     1     0     0     0     7
      1560.293232      421.954334      242.297382     1     0     0     0     8
       684.885820      521.458108      575.698743    10     0     0     0     7
       481.717677      385.501669      146.862514    10     0     0     0     1
       580.200822      113.927266      417.243167    11     0     0     0     4
       537.638378      577.431946      290.369962    17     0     0     0     6
      2419.542314      110.320154      503.374218     1     0     0     0     7
      1978.945339      201.729466      449.580461     1     0     0     0     2
      1029.057817       24.416540       27.398517    39     0     0     0     6
       305.493062      410.243558      131.215872    13     0     0     0     5
      1000.490973      464.055889      198.589560    31     0     0     0     4
       435.465439      106.505264      229.180257    10     0     0     0     1
       435.585802       40.217724       24.028077    13     0     0     0     2
       301.440813        7.785369      453.669579     9     0     0     0     5
       151.254924      357.752117      409.272187    12     0     0     0     7
      1256.856118      178.394380      331.851756    48     0     0     0     1
       254.083299      100.294067      289.920185    15     0     0     0     3
       439.840806      560.904311      192.408684    18     0     0     0     2
        57.415800      111.976367       51.987346    10     0     0     0     3
       496.427791      504.801176       78.835981    17     0     0     0     6
      2751.081450      428.535540      132.895207     1     0     0     0     7
       131.273145       18.074950       92.129146    10     0     0     0     7
      2192.887524      597.884469      527.290534     1     0     0     0     5
       143.510805      464.163423      241.795918    13     0     0     0     2
       442.155809      599.576849      326.028963    13     0     0     0     3
        25.160800      424.457893      428.378949     6     0     0     0     8
       137.327505      427.823234      370.105537    15     0     0     0     3
       221.083056       39.879602      372.077414    13     0     0     0     6
       327.758287      375.323179       71.274839    12     0     0     0     7
      1895.724354      431.573957       48.657774     1     0     0     0     4
        39.058301      549.576020       41.980779     9     0     0     0     1
       225.247366      307.303017      411.758018     6     0     0     0     8
      2259.080432       89.316744      535.756431     1     0     0     0     2
      1953.198674      354.319417      487.595817     1     0     0     0     7
      1702.122516      529.273472      465.096405     1     0     0     0     4
       281.715665      183.453892      100.470789    16     0     0     0     2
       282.284514      103.273992      168.410672    19     0     0     0     4
       130.398798      348.533084       61.210363     9     0     0     0     6
        41.702299       16.893936      126.913884     8     0     0     0     8
      2459.816433      402.059411      211.138461     1     0     0     0     7
       330.152299      543.409111       56.723540    17     0     0     0     1
       409.820787      331.786451       11.837456    12     0     0     0     6
      1667.368687      579.437849      159.590018     1     0     0     0     3
       118.790526      554.510155      581.766514    10     0     0     0     1
       107.513299      402.877121      592.464508     8     0     0     0     7
      2452.111025      341.157036      536.425596     1     0     0     0     5
        50.184801      158.269390      516.957928     8     0     0     0     6
        49.058301      348.230167      287.119804     9     0     0     0     8
       274.188820       96.406110       95.878798    18     0     0     0     6
       815.098283      347.895870      459.396312    23     0     0     0     7
       144.081218      566.266076      364.854185     7     0     0     0     8
       677.103288      473.305685      535.831099    15     0     0     0     5
       193.081953      407.460005      332.455757     9     0     0     0     7
       286.790788      565.710853      210.383151    16     0     0     0     6
      1017.147783      542.818049      155.366821    32     0     0     0     1
       181.161806       45.313919       66.035832    18     0     0     0     3
       224.778306      400.478341       23.596297    17     0     0     0     8
       894.676741      512.337319       32.917365    17     0     0     0     8
       830.590898      520.754544      133.202646    18     0     0     0     5
        65.790874      501.436549      262.244447    10     0     0     0     7
       318.109395      598.243616      116.916657     9     0     0     0     2
       100.350723      530.048237      437.220191     7     0     0     0     7
       199.690943      104.274096      278.502799    21     0     0     0     1
      2510.053419       96.988781      235.219070     1     0     0     0     1
      1813.368944      594.253929      171.002343     1     0     0     0     1
       175.595796      293.045406      338.935989    19     0     0     0     3
        37.588151      496.245221      229.202907     6     0     0     0     7
       231.099053      130.990905      291.276306     5     0     0     0     1
       934.623308      378.042561      192.585409    19     0     0     0     1
       663.153398      421.775937      489.717349    18     0     0     0     5
       120.144800      587.514429      506.267241     8     0     0     0     4
       591.983238      102.315788      243.264700    12     0     0     0     4
      1045.595541      241.205692      131.128976    30     0     0     0     5
        39.362281      492.693417       28.108728     8     0     0     0     3
       256.742296       59.716426      399.287294    11     0     0     0     2
       677.325634      413.845973      271.124330    16     0     0     0     8
       219.085170        8.269640       32.106405    11     0     0     0     4
        55.385875      585.151665       86.751333    16     0     0     0     2
      1886.989442      324.171968      339.216730     1     0     0     0     1
       439.591596      152.782228      558.837602    10     0     0     0     8
       371.397641      461.818757      455.315377    12     0     0     0     6
      1365.491574      459.424958      510.492611     1     0     0     0     1
      2068.583344      463.831622      105.432755     1     0     0     0     8
      1911.681219       47.370151      218.517323     1     0     0     0     1
      3455.228195      320.714797       87.261742     1     0     0     0     3
       132.704714      310.932775      179.325843     6     0     0     0     8
       282.881435      350.043418      516.329442    13     0     0     0     5
       412.140739      383.222256      576.404418     9     0     0     0     3
      2743.258617      492.304398       65.023335     1     0     0     0     5
      1896.355018       54.623217      516.554462     1     0     0     0     7
        62.573154      485.869659      508.317194     8     0     0     0     6
       344.487828       65.432366      137.866125    11     0     0     0     6
       312.613298      584.235316      585.719348    15     0     0     0     2
       165.743303      574.500513        9.108578    10     0     0     0     7
       237.620805      171.798408      565.271606    18     0     0     0     1
      2365.588331      468.724225       57.743557     1     0     0     0     4
      2186.964026      122.862122      127.351593     1     0     0     0     6
      1324.650614       87.765454        5.427730     1     0     0     0     3
       140.538301      165.502876      192.507587    10     0     0     0     1
      1222.351178      497.938956      325.445405    53     0     0     0     4
       224.823148      231.918010      418.403297     9     0     0     0     7
       152.085802      142.455872      150.399977    14     0     0     0     2
       230.566537      178.018404      422.920508    10     0     0     0     2
        52.081548      299.013051      425.149518     9     0     0     0     2
      1818.511627       41.161887      371.133508     1     0     0     0     2
      2875.051071      443.717135      418.594861     1     0     0     0     7
      1986.235629      406.380559       20.794194     1     0     0     0     4
        91.434293       17.601086      469.003716    14     0     0     0     7
       375.980791      154.303460      359.174082    12     0     0     0     8
      1162.340748        9.034417       10.933087    53     0     0     0     6
       422.430803      159.125270      204.607374    18     0     0     0     7
      1832.869850      162.580383      254.464860     1     0     0     0     2
       546.600568      435.989446      353.192515    18     0     0     0     1
       466.395799      179.552629      162.747115    16     0     0     0     6
        58.914875      164.562429      240.868120     6     0     0     0     3
      1720.302311      588.398417        5.841059     1     0     0     0     8
      2037.331363      308.953224      234.797776     1     0     0     0     4
        83.100713      309.601725      274.292904    15     0     0     0     6
       889.778276       89.465004      314.173783    30     0     0     0     1
      1000.687020      420.115545      560.010727    51     0     0     0     4
       211.625795      539.943033       75.227491    11     0     0     0     3
        32.082799      374.374332      129.471415    10     0     0     0     3
      1450.776514      290.234890      525.616275     1     0     0     0     7
      1824.346758      329.356955      124.589284     1     0     0     0     7
       243.375200       12.299868      105.470819    11     0     0     0     8
       555.428300       32.214251      194.537244    23     0     0     0     5
      2008.926018      491.822919      392.403094     1     0     0     0     2
       531.976638      329.309341      168.211408    11     0     0     0     3
       233.285452      211.257095      379.520834    12     0     0     0     6
        57.108066      298.007031      102.924251     6     0     0     0     6
        79.976966       31.027682       73.412505     7     0     0     0     5
      2894.160738       94.105106      249.851203     1     0     0     0     3
        51.765798      454.733958      494.542521    19     0     0     0     3
        37.812051      508.019293      550.065561    12     0     0     0     2
      1484.693765      103.597555      394.382864    93     0     0     0     7
       267.453294      228.244209      558.780809    15     0     0     0     5
        90.744633      350.486897      281.919792    11     0     0     0     5
      2141.900011      524.826049      368.386772     1     0     0     0     2
      1871.349259      590.476785      110.064401     1     0     0     0     4
      2097.085390      425.101387      328.562655     1     0     0     0     3
      2515.786793      454.841245      474.025669     1     0     0     0     7
        94.065797      466.934333      370.739023     7     0     0     0     2
       165.788301      311.936281      495.384419    18     0     0     0     1
        17.553300      246.621809      492.116071     8     0     0     0     4
       490.911356      387.007236      560.080859    20     0     0     0     4
       645.255815      570.668809      101.300565    14     0     0     0     6
      2285.895994      421.998404       12.566959     1     0     0     0     4
        48.916370       57.691003       87.725110    13     0     0     0     2
       637.560581       49.625462      383.888571    20     0     0     0     8
       673.050798       48.560578      489.423102    20     0     0     0     1
        41.975833      423.596671       43.217109     6     0     0     0     6
       262.214109      486.369941      469.246564     9     0     0     0     7
       183.282793      295.673536      498.072185    16     0     0     0     5
      2044.913617      244.415429       63.437082     1     0     0     0     6
       674.853288      154.097901      137.525557    21     0     0     0     3
       234.746070       48.915349      213.119743    12     0     0     0     8
       772.243021      548.150239      164.044269    14     0     0     0     6
       210.198602      422.936192      533.232970    14     0     0     0     8
       684.627264      102.400309       81.270641    12     0     0     0     7
       439.720811      491.510330      575.917513    17     0     0     0     7
       120.005800       27.406497       95.968911    12     0     0     0     7
       807.753313      230.024521      119.747985    17     0     0     0     7
       164.795793        5.865545      346.463486    11     0     0     0     5
        53.268301      422.554781      486.744966     8     0     0     0     2
       270.587297      236.251387       22.058261    14     0     0     0     1
       197.338147      172.560983      260.983197    11     0     0     0     7
       487.793291       12.172440      481.537494    15     0     0     0     2
      1641.333330      451.232490      522.626589     1     0     0     0     1
      1847.393472      571.955521      454.480239     1     0     0     0     7
      1968.936416      135.254355      173.113390     1     0     0     0     5
      2586.737690      570.125033      217.247622     1     0     0     0     6
        25.795801       86.314264      288.005575    10     0     0     0     2
      1112.955766      234.887897      359.472249    48     0     0     0     8
       343.353288      581.224217      177.380955    16     0     0     0     7
      1228.664061      199.898118      365.545398     1     0     0     0     1
        74.808872       65.379475      251.889313    11     0     0     0     3
      2724.032853       65.582944      137.070097     1     0     0     0     1
       382.437273       14.434678       78.674901    11     0     0     0     3
       290.192495      385.520672      318.293074    19     0     0     0     4