ITEM: TIMESTEP
0
ITEM: NUMBER OF ATOMS
        4323
ITEM: BOX BOUNDS pp pp pp
  0.0000000E+00   5000.00000000000     
  0.0000000E+00   600.000000000000     
  0.0000000E+00   600.000000000000     
ITEM: ATOMS x y z nV nH f3 f4 orient
      1833.225177      375.150786      142.633521     1     0     0     0     3
      1156.922760      316.076273      319.105431     1     0     0     0     4
        41.160799      251.752813      200.747680    10     0     0     0     1
       862.538286      371.748447      353.151078    10     0     0     0     3
       348.543047      442.384127      255.822287     9     0     0     0     1
       365.009563      241.740523      457.472179     6     0     0     0     1
       160.150804      375.260856       54.396930    10     0     0     0     6
       181.153306      449.558845      150.871350    12     0     0     0     5
        70.853303       32.650568      471.470641     6     0     0     0     4
       228.046075      299.167850      344.493060    12     0     0     0     4
       139.308496       99.708753      169.426930    10     0     0     0     1
       422.853288       69.515889       52.400030    14     0     0     0     6
       573.725958      264.610122      326.546814    13     0     0     0     1
       511.765794      597.577097      385.024851    10     0     0     0     2
       734.462781      301.757007      320.530375    10     0     0     0     1
      1582.137374       70.122779      111.869557     1     0     0     0     6
      1285.374261      555.923107      551.007606    54     0     0     0     4
       143.888081      448.554653      515.944276    11     0     0     0     2
      1701.253418        8.879892      430.581956     1     0     0     0     3
       366.015794      183.437966       38.939645    16     0     0     0     8
       154.238298      344.806358       77.683160     6     0     0     0     6
       277.776811       58.336061       86.042871    16     0     0     0     1
       568.058305      448.495736      599.691371    15     0     0     0     7
      1126.505815      546.016033      283.723687    29     0     0     0     5
       290.845811      366.502579       16.339261    10     0     0     0     7
      1764.864149      549.894553      157.967757     1     0     0     0     6
       345.260075      249.223641      128.527052    11     0     0     0     4
       724.585888      406.735449      479.400695    11     0     0     0     8
       181.598596      498.122369       45.497513     8     0     0     0     6
       925.177127      180.805712      329.994973    16     0     0     0     8
      2565.375470      494.232841       46.473760     1     0     0     0     5
      3074.756500      484.096606       54.272553     1     0     0     0     8
       255.351462       93.794808       45.372476     9     0     0     0     4
       148.010805      431.024968      291.221362     9     0     0     0     4
       670.043291       11.817712      234.459035    19     0     0     0     3
      2391.445805      457.889831      264.907687     1     0     0     0     1
       455.778306      452.366208       34.824270    17     0     0     0     2
      1966.960000       26.723706      559.873455     1     0     0     0     8
        98.373300      175.691809      360.734750    10     0     0     0     6
        69.651121      329.486445      363.625500     8     0     0     0     8
       415.550451       16.464359      224.829081    17     0     0     0     8
      1710.619288      245.401910      427.885574     1     0     0     0     7
        58.053300      184.035222      162.940177     8     0     0     0     8
       104.398302      449.975522      381.075984    14     0     0     0     4
       175.769031      562.873740      413.772172     8     0     0     0     5
      2208.961835      290.789490       25.241951     1     0     0     0     7
       680.973405       23.901814      258.541608    23     0     0     0     4
       446.439381      269.736945      362.190067    12     0     0     0     1
      1674.649391      549.203597       43.798033     1     0     0     0     3
       259.981372      309.094888      464.767279     8     0     0     0     2
       528.518383       79.583436      168.924861    13     0     0     0     5
       551.637120      152.243917      287.080999     9     0     0     0     8
        25.403797       74.236140      514.747318     8     0     0     0     7
       815.098283      347.895870      459.396312    23     0     0     0     1
       556.358293      538.633571      275.354940    17     0     0     0     3
       139.301301      267.583643      383.489346    16     0     0     0     8
       694.780778      162.544283      250.965311    14     0     0     0     4
       196.750795      284.119848      397.945574    11     0     0     0     8
       601.965776       53.036562      169.186153    22     0     0     0     5
        62.439461      407.725892       81.780873    12     0     0     0     2
       206.085277      152.704068      532.383447    11     0     0     0     3
        64.549043      516.650072      567.618198    11     0     0     0     3
       828.118562      388.875957      101.059477    28     0     0     0     8
       662.283403      579.409929      120.827042     9     0     0     0     8
       169.728303      429.826592      447.949957    14     0     0     0     7
       139.433673      227.369842      438.825509    20     0     0     0     7
       282.838304      339.032631      570.164463    11     0     0     0     8
       118.233710       93.969748      199.628577    15     0     0     0     2
        99.958381      112.986360      342.913672     6     0     0     0     8
      1798.231400       22.179225      473.411884     1     0     0     0     5
      2712.897301      112.858391      426.629075     1     0     0     0     2
       775.479672      100.905061      152.413793    11     0     0     0     8
       262.893297      590.549350      490.876430    15     0     0     0     4
        73.435007      525.119306      458.464668    10     0     0     0     6
        54.005375      458.417522       23.843770     8     0     0     0     2
       509.088304      431.206617       12.994199    17     0     0     0     3
       134.122770      267.185139      399.274804    11     0     0     0     1
       551.152203      515.857045      368.671366    13     0     0     0     1
       519.575424      335.795881      206.968790    16     0     0     0     7
        72.908201       60.949585      267.326605     9     0     0     0     8
       292.814287      536.844256      557.935657    12     0     0     0     4
       589.748308       54.403483       93.542786    22     0     0     0     1
       354.047819      559.613046      141.213519     8     0     0     0     1
      2505.039265      227.871208      122.513492     1     0     0     0     8
        36.057881      407.674328       48.918175     7     0     0     0     1
       208.710520      395.253831      163.402404    13     0     0     0     7
       249.722307      223.130636      419.982918     8     0     0     0     6
      2122.820356      265.428420      167.438984     1     0     0     0     5
       261.805133      218.648768       53.875511    12     0     0     0     6
        79.075799      398.126314      188.916273    16     0     0     0     2
       346.654182      255.945704       84.797883    16     0     0     0     4
       520.630815      417.147843       84.319915    18     0     0     0     7
      1934.630320      269.693744      373.675141     1     0     0     0     8
       223.765794      151.440477      544.323283     9     0     0     0     1
       110.138465      593.022134      425.163980    11     0     0     0     5
      2416.277279      173.926373      501.647976     1     0     0     0     5
       355.780992      321.871685      441.890711    16     0     0     0     5
      1521.770029       75.041965      270.804125     1     0     0     0     2
       119.615800       92.810470      329.446009    13     0     0     0     2
       176.510805      489.124431      395.118733    14     0     0     0     8
       662.140825      331.907154      311.811095    28     0     0     0     7
       104.538438       28.148968      252.525323    19     0     0     0     5
       537.566070      287.590117      269.448678     5     0     0     0     1
        86.982797      597.364840      204.413160    14     0     0     0     6
       511.615153      577.743192      109.063854     6     0     0     0     1
      2521.753825      417.663474      466.826123     1     0     0     0     2
        44.785799      260.962472      265.476717    10     0     0     0     4
       452.529848      572.436707      549.298777    13     0     0     0     4
      1840.317784      470.840310      233.380616     1     0     0     0     5
       697.412881      109.219266        6.539289    27     0     0     0     2
       286.632254      341.342634       43.335343     9     0     0     0     6
       214.718223      484.444000        1.881816    10     0     0     0     8
       203.526101      251.513407      498.302023    11     0     0     0     6
       175.124300      138.633836      248.616420     6     0     0     0     4
       817.265825      304.944725       56.581968    25     0     0     0     3
       120.884568      282.777091      351.450181     8     0     0     0     6
        84.365870      560.084973      319.823223    13     0     0     0     8
       125.108825      505.556386      321.739260     6     0     0     0     8
       329.865800      456.216860      225.713734     6     0     0     0     7
       593.226256      103.789690      556.890830     6     0     0     0     2
       229.738735      476.486384      493.496560     9     0     0     0     7
      1923.991470      201.940600       56.937990     1     0     0     0     1
       215.075671      188.748993      352.542269     8     0     0     0     6
      2670.922616      404.878506      528.676988     1     0     0     0     5
      1815.347666      456.390234      521.404694     1     0     0     0     3
        45.440207      153.156210      224.041954    19     0     0     0     3
      1912.934296      239.801206      315.273013     1     0     0     0     6
       296.144304      365.477618       23.748080    11     0     0     0     7
       212.453294      478.294749      164.509903    11     0     0     0     4
       972.507216      283.326877      251.064878    21     0     0     0     3
       485.615659      228.063894      486.351926    10     0     0     0     3
      1826.674508      224.942885       15.651343     1     0     0     0     8
      2128.036756       48.611472      451.686965     1     0     0     0     7
      3384.730108      238.209602      390.590534     1     0     0     0     4
      1132.701635      368.713346       30.241070    36     0     0     0     5
       785.633317      302.872058      355.432801    15     0     0     0     4
      2958.478936      164.065410      269.263107     1     0     0     0     2
      1861.896305       77.329738      125.006565     1     0     0     0     2
        24.339799      111.746130      371.403501     9     0     0     0     2
      2023.128700      494.808144      130.161625     1     0     0     0     1
       119.208076      139.213147       14.518541    11     0     0     0     3
       772.933571      226.922927      254.420913    20     0     0     0     7
       209.046598      578.720696       21.826076    11     0     0     0     4
       158.175614      342.697825       93.359190    14     0     0     0     7
       296.960802       39.298337      107.141144    15     0     0     0     1
       424.557454      593.546858      582.177253    18     0     0     0     5
      1192.303948       11.895522      266.848679     1     0     0     0     6
       376.497595      148.016003      320.091229    12     0     0     0     2
       812.133317      384.625587      418.218393    21     0     0     0     7
       632.255855      144.418783      523.023035    20     0     0     0     3
      1222.048909      408.816344      426.951845    41     0     0     0     8
       174.565970      307.166231       63.756920     7     0     0     0     7
       427.915363      392.245504      164.526400    21     0     0     0     3
       477.012681      433.065298      452.529292     9     0     0     0     1
       155.722171      288.346266      210.239939     8     0     0     0     3
      2038.955036      513.722038      232.222153     1     0     0     0     7
       954.290645      595.407064      563.105916    28     0     0     0     8
       179.727520      566.138615      124.726233     6     0     0     0     3
       559.603849      406.299036      290.053819     9     0     0     0     7
       774.415788      166.608093      423.055643    23     0     0     0     4
       421.435722      432.340794      353.479263     8     0     0     0     4
       687.665788      420.382568       33.152644    15     0     0     0     4
       539.959526      445.322746      448.681874     9     0     0     0     3
       249.554221      527.788559      131.654946    14     0     0     0     3
       242.930299      235.545350       98.326370     7     0     0     0     7
       495.832800       40.683291      474.079295    15     0     0     0     5
      1646.487379      293.740786      171.578004     1     0     0     0     8
       661.266528      329.794545       76.944857    23     0     0     0     5
      1140.406319       83.455086      509.749232    39     0     0     0     2
      2337.939110      433.384817      408.200985     1     0     0     0     6
       380.370805       50.734912      174.194069    17     0     0     0     3
        91.808368      327.757634      167.242791    10     0     0     0     6
       110.433608       71.605436      536.493596    11     0     0     0     3
       509.572922      151.052550      284.675656    13     0     0     0     5
       606.837709      509.235751       65.800646    17     0     0     0     1
       222.633898      161.502793      362.929235    14     0     0     0     4
       302.714639       94.180762      160.558701    18     0     0     0     5
       726.318669      552.065401      419.741266    17     0     0     0     2
       313.664293      358.962122      178.805958    12     0     0     0     4
       155.919801      457.340674      479.331039    12     0     0     0     4
        77.492899       45.756497      492.838448    10     0     0     0     1
       277.309843      295.038060       39.135524    10     0     0     0     5
       220.214985      272.731090       53.627290    11     0     0     0     8
       358.673296      241.445106      259.680138    16     0     0     0     4
       918.815813      562.538629      525.296579    14     0     0     0     1
      2264.179772      476.555950      317.593579     1     0     0     0     7
      2725.015029       23.780105      173.072703     1     0     0     0     7
        47.040800       48.754523      256.853337    15     0     0     0     2
      1874.678064      143.460268      285.123554     1     0     0     0     3
        32.676799      359.614038      145.948611     8     0     0     0     5
       911.478288      161.400319      261.049286    30     0     0     0     8
      1992.845751      506.286807        0.831750     1     0     0     0     8
       751.830883       56.622438      471.969650    20     0     0     0     6
       162.194424      504.652789      320.187996    25     0     0     0     6
      1956.834920      301.484682      524.858169     1     0     0     0     5
       645.804685       61.865551      552.333212    15     0     0     0     2
       481.717677      385.501669      146.862514    10     0     0     0     1
       812.229368      147.630514      363.501223    23     0     0     0     4
       495.735796       74.762288      307.342214    16     0     0     0     1
      1426.729476        7.496880      468.619062     1     0     0     0     7
      2095.882747      143.008442      300.351302     1     0     0     0     4
       902.755699      177.139776      555.390510    24     0     0     0     4
       305.493062      410.243558      131.215872    13     0     0     0     5
      1000.490973      464.055889      198.589560    31     0     0     0     4
       435.465439      106.505264      229.180257    10     0     0     0     1
       404.973314      503.341986      186.635138    18     0     0     0     2
       256.225801        3.692685      400.682098    18     0     0     0     8
       151.254924      357.752117      409.272187    12     0     0     0     7
      1140.558573      144.456948      218.684990    46     0     0     0     6
       254.083299      100.294067      289.920185    15     0     0     0     3
       439.840806      560.904311      192.408684    18     0     0     0     2
        57.415800      111.976367       51.987346    10     0     0     0     3
       432.226261      514.562427      503.965428    11     0     0     0     3
      2321.041551      451.103120      145.544534     1     0     0     0     8
       120.005800       27.406497       95.968911    12     0     0     0     5
      1814.376235      494.524186      419.784135     1     0     0     0     7
       143.510805      464.163423      241.795918    13     0     0     0     2
       362.820419      490.416698      377.974047    16     0     0     0     4
        25.160800      424.457893      428.378949     6     0     0     0     8
       137.327505      427.823234      370.105537    15     0     0     0     3
       221.083056       39.879602      372.077414    13     0     0     0     6
       367.348563      441.542556      147.411885    16     0     0     0     2
      3201.231619      442.848418      193.473912     1     0     0     0     2
        39.058301      549.576020       41.980779     9     0     0     0     1
       282.024896      240.523790      386.576043    18     0     0     0     4
       121.875105      354.584945        5.760364    11     0     0     0     4
      2712.386983      497.459150      332.507941     1     0     0     0     3
      2598.761313      477.734276      282.522938     1     0     0     0     5
       281.715665      183.453892      100.470789    16     0     0     0     2
       399.310252       83.407899      194.152806    21     0     0     0     7
      2961.550416      538.219126      179.985779     1     0     0     0     4
       114.348802      516.736389      104.715247    16     0     0     0     6
      3246.960755      504.484669      285.969526     1     0     0     0     4
       330.152299      543.409111       56.723540    17     0     0     0     1
       409.820787      331.786451       11.837456    12     0     0     0     6
      2314.650432      545.402842      158.674268     1     0     0     0     6
       185.030334      527.904829        9.622710    10     0     0     0     3
       107.513299      402.877121      592.464508     8     0     0     0     7
      1920.046865      405.335530       39.837624     1     0     0     0     1
        50.184801      158.269390      516.957928     8     0     0     0     6
        98.945802      331.260952      299.333912    14     0     0     0     7
       287.205797       79.562705       55.959127    13     0     0     0     4
       764.586873      375.470008      413.571482    14     0     0     0     5
       144.217217      566.402075      364.718186     7     0     0     0     7
       678.865800      458.321686      499.471636    10     0     0     0     3
       290.192495      385.520672      318.293074    19     0     0     0     8
       257.343294      504.170947      229.852752     9     0     0     0     8
       935.497627       19.562138      326.644460    30     0     0     0     7
       181.161806       45.313919       66.035832    18     0     0     0     3
       224.778306      400.478341       23.596297    17     0     0     0     8
       911.006113      353.723130      266.600923    16     0     0     0     6
       885.023271      547.078692       43.509016    16     0     0     0     4
      2077.434377      324.346792       25.931186     1     0     0     0     4
       318.109395      598.243616      116.916657     9     0     0     0     2
       100.350723      530.048237      437.220191     7     0     0     0     7
       220.066501       61.462556      192.454612    13     0     0     0     6
       342.443989       39.209658       34.163984    22     0     0     0     8
       403.398427      354.053107      344.752913     6     0     0     0     3
       175.595796      293.045406      338.935989    19     0     0     0     3
        37.588151      496.245221      229.202907     6     0     0     0     7
      2295.456459      464.924515      523.314070     1     0     0     0     4
       901.111648       53.617964      592.442989    25     0     0     0     8
       772.058305      587.942192      492.956283    20     0     0     0     5
       120.144800      587.514429      506.267241     8     0     0     0     4
       642.855846      146.748239      177.544934    17     0     0     0     4
      1039.010974      283.188611      110.834982    31     0     0     0     1
        39.362281      492.693417       28.108728     8     0     0     0     3
       150.669137       28.285752      562.446098    14     0     0     0     6
       616.675798      327.053211      298.228535    17     0     0     0     3
       247.950807      545.060778      568.400894    17     0     0     0     8
       131.273145       18.074950       92.129146    10     0     0     0     6
      1213.588178       25.206684      391.649948    39     0     0     0     3
       439.591596      152.782228      558.837602    10     0     0     0     8
       371.397641      461.818757      455.315377    12     0     0     0     6
      1995.863896      278.635053      302.337376     1     0     0     0     5
      1890.765939      335.429373      178.712527     1     0     0     0     5
      3091.025905      570.560792      463.642818     1     0     0     0     4
      1249.308501       14.041122      371.002553     1     0     0     0     3
       134.660799      181.728281      144.263936    14     0     0     0     2
       268.691054      352.410925      503.426697    13     0     0     0     7
       412.140739      383.222256      576.404418     9     0     0     0     3
      2272.117624      231.691626      211.815257     1     0     0     0     8
      1672.650335      591.185516      408.274830     1     0     0     0     2
        62.573154      485.869659      508.317194     8     0     0     0     6
       344.487828       65.432366      137.866125    11     0     0     0     6
       339.898302      580.576436      430.644209    14     0     0     0     5
      2416.116598      456.634268      330.286941     1     0     0     0     5
       237.620805      171.798408      565.271606    18     0     0     0     1
       325.821224      490.736459      261.768348     7     0     0     0     3
        52.107770      379.320186      512.696999     5     0     0     0     8
      1348.727074      175.136112      359.708958     1     0     0     0     3
       140.538301      165.502876      192.507587    10     0     0     0     1
      1123.650835      161.243733      369.585161    35     0     0     0     2
       224.823148      231.918010      418.403297     9     0     0     0     7
       208.025301      182.574877      111.684709    12     0     0     0     4
       230.566537      178.018404      422.920508    10     0     0     0     2
        52.081548      299.013051      425.149518     9     0     0     0     2
       151.975991      355.473260      540.664132    14     0     0     0     3
      2598.973851      348.730914      501.832113     1     0     0     0     5
      1360.294884      573.819865      521.592842     1     0     0     0     6
        91.434293       17.601086      469.003716    14     0     0     0     7
       340.448711      226.503642      368.761714    15     0     0     0     3
      1135.864042      579.128600      459.484723    43     0     0     0     4
       452.274797      242.371521      153.813992    14     0     0     0     3
      3109.822953      312.068907      298.423706     1     0     0     0     6
       527.328975      453.275617      598.557153    16     0     0     0     5
       466.395799      179.552629      162.747115    16     0     0     0     6
        58.914875      164.562429      240.868120     6     0     0     0     3
        94.065797      466.934333      370.739023     6     0     0     0     2
      1685.015746      194.681510      342.242787     1     0     0     0     4
        83.100713      309.601725      274.292904    15     0     0     0     6
      1034.238470      515.589461       20.874638    43     0     0     0     5
       962.783281      549.212002      463.924283    33     0     0     0     2
       211.625795      539.943033       75.227491    11     0     0     0     3
      2284.092836      270.296605      252.038412     1     0     0     0     1
        66.202876      147.614646      550.075648    13     0     0     0     8
       546.639623      436.287231      353.554899    20     0     0     0     4
       405.542203      574.977041       86.295276    14     0     0     0     8
       495.334348       92.147447      210.939494     7     0     0     0     6
       336.445437      273.755827        5.215769     9     0     0     0     7
      2536.947768      296.888288      487.691539     1     0     0     0     7
       233.285452      211.257095      379.520834    12     0     0     0     6
        57.108066      298.007031      102.924251     6     0     0     0     6
      2160.587022       96.778972      354.177566     1     0     0     0     1
      2859.750402        8.885025       27.462224     1     0     0     0     4
        51.765798      454.733958      494.542521    19     0     0     0     3
        37.812051      508.019293      550.065561    12     0     0     0     2
      1149.865798      411.421172      291.819407    43     0     0     0     1
       267.453294      228.244209      558.780809    15     0     0     0     5
        90.744633      350.486897      281.919792    11     0     0     0     5
      1982.959541      425.652114      561.811764     1     0     0     0     7
      2016.182119      293.940057      279.248948     1     0     0     0     7
      2877.953999      547.469751      409.779436     1     0     0     0     6
      2805.549074      202.165809      386.751990     1     0     0     0     1
      2336.215551      261.257538      541.690326     1     0     0     0     5
       165.788301      311.936281      495.384419    18     0     0     0     1
        17.553300      246.621809      492.116071     8     0     0     0     4
       388.660174      319.769590      578.591750    17     0     0     0     1
       682.747660      449.656128      110.711558    35     0     0     0     7
      2832.180650      108.384325      552.949043     1     0     0     0     1
        48.916370       57.691003       87.725110    13     0     0     0     2
       708.100786       88.515606      447.251056    16     0     0     0     4
       689.923296      100.475312      304.341581    17     0     0     0     8
        41.975833      423.596671       43.217109     6     0     0     0     6
       262.214109      486.369941      469.246564     9     0     0     0     7
       183.282793      295.673536      498.072185    16     0     0     0     5
      1862.397284      331.709034      206.688186     1     0     0     0     4
       674.853288      154.097901      137.525557    21     0     0     0     3
       234.746070       48.915349      213.119743    12     0     0     0     8
       728.653578      558.529893      145.547593    13     0     0     0     8
       210.198602      422.936192      533.232970    14     0     0     0     8
       747.853288       84.682061       73.257039    26     0     0     0     8
       439.720811      491.510330      575.917513    17     0     0     0     7
       120.394366       39.753354      128.767709     8     0     0     0     4
       827.773841      323.365334       31.173815    22     0     0     0     1
       164.795793        5.865545      346.463486    11     0     0     0     5
        53.268301      422.554781      486.744966     8     0     0     0     2
       326.283311      225.884091       58.695023     9     0     0     0     1
       210.357719      185.359497      254.469457    12     0     0     0     6
       487.793291       12.172440      481.537494    15     0     0     0     6
      1275.834389      401.248959      111.633391     1     0     0     0     6
      2610.832833      108.485173      582.588524     1     0     0     0     4
        48.967685      312.608987      494.730920    10     0     0     0     5
      3422.763862      491.647789       28.372213     1     0     0     0     1
        25.795801       86.314264      288.005575    10     0     0     0     2
       895.318021      318.246729      399.891011    37     0     0     0     5
       343.353288      581.224217      177.380955    16     0     0     0     7
      2291.933341      240.853732      238.295148     1     0     0     0     7
        74.808872       65.379475      251.889313    11     0     0     0     3
      1466.880344      340.789581      521.359685     1     0     0     0     6
       274.188820       96.406110       95.878798    18     0     0     0     4
       245.792228      414.873945      308.008086    12     0     0     0     7