ITEM: TIMESTEP
0
ITEM: NUMBER OF ATOMS
        4278
ITEM: BOX BOUNDS pp pp pp
  0.0000000E+00   5000.00000000000     
  0.0000000E+00   600.000000000000     
  0.0000000E+00   600.000000000000     
ITEM: ATOMS x y z nV nH f3 f4 orient
      2582.444299      404.795190      561.181894     1     0     0     0     3
      1321.510542      271.764178      164.013098     1     0     0     0     6
        41.160799      251.752813      200.747680    10     0     0     0     1
       862.538286      371.748447      353.151078    10     0     0     0     3
       348.543047      442.384127      255.822287     9     0     0     0     1
       365.009563      241.740523      457.472179     6     0     0     0     1
       160.150804      375.260856       54.396930    10     0     0     0     6
       181.153306      449.558845      150.871350    12     0     0     0     5
        70.853303       32.650568      471.470641     6     0     0     0     4
       228.046075      299.167850      344.493060    12     0     0     0     4
       139.308496       99.708753      169.426930    10     0     0     0     1
       422.853288       69.515889       52.400030    14     0     0     0     6
       573.725958      264.610122      326.546814    13     0     0     0     1
       511.765794      597.577097      385.024851    10     0     0     0     2
       734.462781      301.757007      320.530375    10     0     0     0     1
      1830.601622      176.155292      154.599077     1     0     0     0     5
      2088.999803       45.524279      204.434026     1     0     0     0     8
       143.888081      448.554653      515.944276    11     0     0     0     2
      1868.031712      191.697058      472.533065     1     0     0     0     8
       366.015794      183.437966       38.939645    16     0     0     0     8
       154.238298      344.806358       77.683160     6     0     0     0     6
       277.776811       58.336061       86.042871    16     0     0     0     1
       568.058305      448.495736      599.691371    15     0     0     0     7
      1126.505815      546.016033      283.723687    29     0     0     0     5
       290.845811      366.502579       16.339261    10     0     0     0     7
      2338.859179      366.034053      215.927602     1     0     0     0     1
       345.260075      249.223641      128.527052    11     0     0     0     4
       724.585888      406.735449      479.400695    11     0     0     0     8
       181.598596      498.122369       45.497513     8     0     0     0     6
       925.177127      180.805712      329.994973    16     0     0     0     8
       203.721289      359.490015      334.420853     6     0     0     0     5
      3166.545839      151.755893      423.216628     1     0     0     0     8
       255.351462       93.794808       45.372476     9     0     0     0     4
       148.010805      431.024968      291.221362     9     0     0     0     4
       670.043291       11.817712      234.459035    19     0     0     0     3
      2098.205897      461.095693       15.883086     1     0     0     0     3
       455.778306      452.366208       34.824270    17     0     0     0     2
      2840.701616      556.402730      523.173816     1     0     0     0     3
        98.373300      175.691809      360.734750    10     0     0     0     6
        69.651121      329.486445      363.625500     8     0     0     0     8
       415.550451       16.464359      224.829081    17     0     0     0     8
      1169.378699      413.154841      301.279588     1     0     0     0     1
        58.053300      184.035222      162.940177     8     0     0     0     8
       104.398302      449.975522      381.075984    14     0     0     0     4
       175.769031      562.873740      413.772172     8     0     0     0     5
      2452.149710      256.599800      436.760823     1     0     0     0     3
       680.973405       23.901814      258.541608    23     0     0     0     4
       446.439381      269.736945      362.190067    12     0     0     0     1
      1959.699507      323.798368      260.002129     1     0     0     0     8
       259.981372      309.094888      464.767279     8     0     0     0     2
       528.518383       79.583436      168.924861    13     0     0     0     5
       551.637120      152.243917      287.080999     9     0     0     0     8
        25.403797       74.236140      514.747318     8     0     0     0     7
       815.098283      347.895870      459.396312    23     0     0     0     1
       556.358293      538.633571      275.354940    17     0     0     0     3
       139.301301      267.583643      383.489346    16     0     0     0     8
       694.780778      162.544283      250.965311    14     0     0     0     4
      2318.363063      461.356869      372.474697     1     0     0     0     5
       601.965776       53.036562      169.186153    22     0     0     0     5
        62.439461      407.725892       81.780873    12     0     0     0     2
       206.085277      152.704068      532.383447    11     0     0     0     3
        64.549043      516.650072      567.618198    11     0     0     0     3
       828.118562      388.875957      101.059477    28     0     0     0     8
       662.283403      579.409929      120.827042     9     0     0     0     8
       169.728303      429.826592      447.949957    14     0     0     0     7
       139.433673      227.369842      438.825509    20     0     0     0     7
       282.838304      339.032631      570.164463    11     0     0     0     8
       118.233710       93.969748      199.628577    15     0     0     0     2
        99.958381      112.986360      342.913672     6     0     0     0     8
      2418.360154      231.069483      184.508406     1     0     0     0     6
      2796.773766      165.083360      377.569256     1     0     0     0     6
       775.479672      100.905061      152.413793    11     0     0     0     8
       262.893297      590.549350      490.876430    15     0     0     0     4
        73.435007      525.119306      458.464668    10     0     0     0     6
        54.005375      458.417522       23.843770     8     0     0     0     2
       509.088304      431.206617       12.994199    17     0     0     0     3
       134.122770      267.185139      399.274804    11     0     0     0     1
       551.152203      515.857045      368.671366    13     0     0     0     1
       519.575424      335.795881      206.968790    16     0     0     0     7
        72.908201       60.949585      267.326605     9     0     0     0     8
       292.814287      536.844256      557.935657    12     0     0     0     4
       589.748308       54.403483       93.542786    22     0     0     0     1
       354.047819      559.613046      141.213519     8     0     0     0     1
      1752.035446      598.444132      329.879485     1     0     0     0     6
      2866.324313      449.501177      176.953881     1     0     0     0     6
       208.710520      395.253831      163.402404    13     0     0     0     7
       249.722307      223.130636      419.982918     8     0     0     0     6
      1711.065788      263.172608      295.131917     1     0     0     0     4
       261.805133      218.648768       53.875511    12     0     0     0     6
        79.075799      398.126314      188.916273    16     0     0     0     2
       346.654182      255.945704       84.797883    16     0     0     0     4
       520.630815      417.147843       84.319915    18     0     0     0     7
      1896.811131      217.977564      454.993651     1     0     0     0     3
       223.765794      151.440477      544.323283     9     0     0     0     1
       110.138465      593.022134      425.163980    11     0     0     0     5
      1736.885868      314.857501      316.332237     1     0     0     0     8
       355.780992      321.871685      441.890711    16     0     0     0     5
      1504.361706      301.350165      125.003099     1     0     0     0     4
       119.615800       92.810470      329.446009    13     0     0     0     2
       176.510805      489.124431      395.118733    14     0     0     0     8
       662.140825      331.907154      311.811095    28     0     0     0     7
       104.538438       28.148968      252.525323    19     0     0     0     5
      1582.556614      347.347520      199.225147     1     0     0     0     8
        86.982797      597.364840      204.413160    14     0     0     0     6
       511.615153      577.743192      109.063854     6     0     0     0     1
      1631.202722      272.626588        7.685077     1     0     0     0     1
        44.785799      260.962472      265.476717    10     0     0     0     4
       452.529848      572.436707      549.298777    13     0     0     0     4
      2580.069639      594.763135      176.141078     1     0     0     0     8
       697.412881      109.219266        6.539289    27     0     0     0     2
       286.632254      341.342634       43.335343     9     0     0     0     6
       214.718223      484.444000        1.881816    10     0     0     0     8
       203.526101      251.513407      498.302023    11     0     0     0     6
       175.124300      138.633836      248.616420     6     0     0     0     4
       817.265825      304.944725       56.581968    25     0     0     0     3
       120.884568      282.777091      351.450181     8     0     0     0     6
        84.365870      560.084973      319.823223    13     0     0     0     8
       125.108825      505.556386      321.739260     6     0     0     0     8
      1526.959366      353.350294      344.436447     1     0     0     0     6
       593.226256      103.789690      556.890830     6     0     0     0     2
       229.738735      476.486384      493.496560     9     0     0     0     7
       540.284689      371.819602      391.088885    17     0     0     0     3
       215.075671      188.748993      352.542269     8     0     0     0     6
      2063.291972      558.349319      108.815430     1     0     0     0     4
      2013.169518      575.083346      152.664760     1     0     0     0     6
        45.440207      153.156210      224.041954    19     0     0     0     3
      1925.702411      512.123860        3.001386     1     0     0     0     8
       296.144304      365.477618       23.748080    11     0     0     0     7
       212.453294      478.294749      164.509903    11     0     0     0     4
       972.507216      283.326877      251.064878    21     0     0     0     3
       485.615659      228.063894      486.351926    10     0     0     0     3
      2427.983592       50.832531      347.027380     1     0     0     0     2
      1707.234446      240.029836      149.560633     1     0     0     0     1
      3109.362089       60.961221       64.580120     1     0     0     0     1
      1132.701635      368.713346       30.241070    36     0     0     0     5
       785.633317      302.872058      355.432801    15     0     0     0     4
      2760.657083      168.813134      217.038138     1     0     0     0     5
      1829.704711      285.495198      178.772704     1     0     0     0     2
        24.339799      111.746130      371.403501     9     0     0     0     2
      1879.114391      509.051317       43.120010     1     0     0     0     8
       119.208076      139.213147       14.518541    11     0     0     0     3
       772.933571      226.922927      254.420913    20     0     0     0     7
       209.046598      578.720696       21.826076    11     0     0     0     4
       158.175614      342.697825       93.359190    14     0     0     0     7
       296.960802       39.298337      107.141144    15     0     0     0     1
       424.557454      593.546858      582.177253    18     0     0     0     5
      1896.394965      460.284294      271.977547     1     0     0     0     2
       376.497595      148.016003      320.091229    12     0     0     0     2
       812.133317      384.625587      418.218393    21     0     0     0     7
       632.255855      144.418783      523.023035    20     0     0     0     3
      1983.873764      544.073334      277.259739     1     0     0     0     8
      1853.906551      211.674871      248.849809     1     0     0     0     2
       427.915363      392.245504      164.526400    21     0     0     0     3
       477.012681      433.065298      452.529292     9     0     0     0     1
       155.722171      288.346266      210.239939     8     0     0     0     3
      2419.306084      280.943674      122.872939     1     0     0     0     6
       954.290645      595.407064      563.105916    28     0     0     0     8
       179.727520      566.138615      124.726233     6     0     0     0     3
       559.603849      406.299036      290.053819     9     0     0     0     7
       774.415788      166.608093      423.055643    23     0     0     0     4
      1910.138308        1.326698      567.291264     1     0     0     0     8
       687.665788      420.382568       33.152644    15     0     0     0     4
       539.959526      445.322746      448.681874     9     0     0     0     3
       249.554221      527.788559      131.654946    14     0     0     0     3
       242.930299      235.545350       98.326370     7     0     0     0     7
       495.832800       40.683291      474.079295    15     0     0     0     5
      2777.730520      477.853814      275.722847     1     0     0     0     3
       661.266528      329.794545       76.944857    23     0     0     0     5
      1276.939261      309.525031      468.804912    64     0     0     0     8
      2130.974357      473.313804       89.356321     1     0     0     0     8
       380.370805       50.734912      174.194069    17     0     0     0     3
        91.808368      327.757634      167.242791    10     0     0     0     6
       110.433608       71.605436      536.493596    11     0     0     0     3
       509.572922      151.052550      284.675656    13     0     0     0     5
       606.837709      509.235751       65.800646    17     0     0     0     1
       222.633898      161.502793      362.929235    14     0     0     0     4
       302.714639       94.180762      160.558701    18     0     0     0     5
       726.318669      552.065401      419.741266    17     0     0     0     2
       313.664293      358.962122      178.805958    12     0     0     0     4
       155.919801      457.340674      479.331039    12     0     0     0     4
        77.492899       45.756497      492.838448    10     0     0     0     1
       277.309843      295.038060       39.135524    10     0     0     0     5
       220.214985      272.731090       53.627290    11     0     0     0     8
       358.673296      241.445106      259.680138    16     0     0     0     4
       918.815813      562.538629      525.296579    14     0     0     0     1
      2532.538393      370.715903      597.026101     1     0     0     0     3
      2851.621015      242.175430      437.566840     1     0     0     0     6
      2316.281726      141.464314      510.877778     1     0     0     0     1
      2378.927142      502.531528      298.305797     1     0     0     0     1
        32.676799      359.614038      145.948611     8     0     0     0     5
       911.478288      161.400319      261.049286    30     0     0     0     8
       338.729707      103.519045       46.436422     7     0     0     0     3
       751.830883       56.622438      471.969650    20     0     0     0     6
      2333.235872      394.683456      181.129372     1     0     0     0     3
      1871.375880      266.668036      360.270387     1     0     0     0     3
       645.804685       61.865551      552.333212    15     0     0     0     2
       481.717677      385.501669      146.862514    10     0     0     0     1
       812.229368      147.630514      363.501223    23     0     0     0     4
       495.735796       74.762288      307.342214    16     0     0     0     1
       142.120918      190.742173      371.201235    10     0     0     0     5
       277.153829       84.877673      578.445365     5     0     0     0     7
       902.755699      177.139776      555.390510    24     0     0     0     4
       305.493062      410.243558      131.215872    13     0     0     0     5
      1000.490973      464.055889      198.589560    31     0     0     0     4
       435.465439      106.505264      229.180257    10     0     0     0     1
       404.973314      503.341986      186.635138    18     0     0     0     2
       256.225801        3.692685      400.682098    18     0     0     0     8
       151.254924      357.752117      409.272187    12     0     0     0     7
      1140.558573      144.456948      218.684990    46     0     0     0     6
       254.083299      100.294067      289.920185    15     0     0     0     3
       439.840806      560.904311      192.408684    18     0     0     0     2
        57.415800      111.976367       51.987346    10     0     0     0     3
       432.226261      514.562427      503.965428    11     0     0     0     3
       617.185718      410.215831      463.551793    23     0     0     0     7
       120.005800       27.406497       95.968911    12     0     0     0     5
      2303.168541       17.822040      555.141786     1     0     0     0     3
      2390.850099      240.334761       99.477367     1     0     0     0     8
       362.820419      490.416698      377.974047    16     0     0     0     4
      2194.543019      353.212316      219.757954     1     0     0     0     8
       137.327505      427.823234      370.105537    15     0     0     0     3
       221.083056       39.879602      372.077414    13     0     0     0     6
       367.348563      441.542556      147.411885    16     0     0     0     2
      2200.203401      170.065335      550.857754     1     0     0     0     1
        39.058301      549.576020       41.980779     9     0     0     0     1
       282.024896      240.523790      386.576043    18     0     0     0     4
       121.875105      354.584945        5.760364    11     0     0     0     4
      2009.635455       46.230737      136.100846     1     0     0     0     2
        92.167463      353.343232      329.079436    20     0     0     0     1
       281.715665      183.453892      100.470789    16     0     0     0     2
       399.310252       83.407899      194.152806    21     0     0     0     7
      2588.062758      487.576732      287.600867     1     0     0     0     8
       114.348802      516.736389      104.715247    16     0     0     0     6
      3066.547225      347.605619       83.399949     1     0     0     0     2
       330.152299      543.409111       56.723540    17     0     0     0     1
       409.820787      331.786451       11.837456    12     0     0     0     6
      1897.809253      421.582061      111.035775     1     0     0     0     4
       185.030334      527.904829        9.622710    10     0     0     0     3
       107.513299      402.877121      592.464508     8     0     0     0     7
      1763.371957      470.221097      461.006669     1     0     0     0     8
        50.184801      158.269390      516.957928     8     0     0     0     6
        98.945802      331.260952      299.333912    14     0     0     0     7
       287.205797       79.562705       55.959127    13     0     0     0     4
       764.586873      375.470008      413.571482    14     0     0     0     5
       144.217217      566.402075      364.718186     7     0     0     0     7
       678.865800      458.321686      499.471636    10     0     0     0     3
       290.192495      385.520672      318.293074    19     0     0     0     8
       257.343294      504.170947      229.852752     9     0     0     0     8
       935.497627       19.562138      326.644460    30     0     0     0     7
       181.161806       45.313919       66.035832    18     0     0     0     3
       224.778306      400.478341       23.596297    17     0     0     0     8
       911.006113      353.723130      266.600923    16     0     0     0     6
       885.023271      547.078692       43.509016    16     0     0     0     4
      1904.698188      301.240819      192.604866     1     0     0     0     5
       318.109395      598.243616      116.916657     9     0     0     0     2
      1344.818071      414.734733      116.436061    58     0     0     0     1
       220.066501       61.462556      192.454612    13     0     0     0     6
       342.443989       39.209658       34.163984    22     0     0     0     8
       403.398427      354.053107      344.752913     6     0     0     0     3
       175.595796      293.045406      338.935989    19     0     0     0     3
        37.588151      496.245221      229.202907     6     0     0     0     7
      1693.492613      462.225689      134.684005     1     0     0     0     3
       901.111648       53.617964      592.442989    25     0     0     0     8
       772.058305      587.942192      492.956283    20     0     0     0     5
       120.144800      587.514429      506.267241     8     0     0     0     4
       642.855846      146.748239      177.544934    17     0     0     0     4
      1039.010974      283.188611      110.834982    31     0     0     0     1
        39.362281      492.693417       28.108728     8     0     0     0     3
       150.669137       28.285752      562.446098    14     0     0     0     6
       616.675798      327.053211      298.228535    17     0     0     0     3
       247.950807      545.060778      568.400894    17     0     0     0     8
       131.273145       18.074950       92.129146    10     0     0     0     6
      1213.588178       25.206684      391.649948    39     0     0     0     3
       439.591596      152.782228      558.837602    10     0     0     0     8
       371.397641      461.818757      455.315377    12     0     0     0     6
      1222.024884      408.932463      427.010686    42     0     0     0     2
      1727.225679      524.644162      544.789609     1     0     0     0     4
      2472.494499      496.486117       84.104069     1     0     0     0     7
      2148.823935      224.319663      501.980339     1     0     0     0     5
       134.660799      181.728281      144.263936    14     0     0     0     2
       268.691054      352.410925      503.426697    13     0     0     0     7
       412.140739      383.222256      576.404418     9     0     0     0     3
      2137.323637       22.146334      385.883751     1     0     0     0     3
      1557.122373       71.896832      343.389262     1     0     0     0     7
        62.573154      485.869659      508.317194     8     0     0     0     6
       344.487828       65.432366      137.866125    11     0     0     0     6
       339.898302      580.576436      430.644209    14     0     0     0     5
      2205.718111      561.023745      298.851298     1     0     0     0     3
       237.620805      171.798408      565.271606    18     0     0     0     1
       325.821224      490.736459      261.768348     7     0     0     0     3
        52.107770      379.320186      512.696999     5     0     0     0     8
       283.113298      388.486062      229.137240    15     0     0     0     4
       140.538301      165.502876      192.507587    10     0     0     0     1
      1123.650835      161.243733      369.585161    35     0     0     0     2
       224.823148      231.918010      418.403297     9     0     0     0     7
       208.025301      182.574877      111.684709    12     0     0     0     4
       230.566537      178.018404      422.920508    10     0     0     0     2
        52.081548      299.013051      425.149518     9     0     0     0     2
       151.975991      355.473260      540.664132    14     0     0     0     3
      2098.614788      417.202490      338.500329     1     0     0     0     4
      2263.490550      329.944325      110.159826     1     0     0     0     6
        91.434293       17.601086      469.003716    14     0     0     0     7
       340.448711      226.503642      368.761714    15     0     0     0     3
      1135.864042      579.128600      459.484723    43     0     0     0     4
       452.274797      242.371521      153.813992    14     0     0     0     3
      3029.111637      386.449924       49.959458     1     0     0     0     1
       527.328975      453.275617      598.557153    16     0     0     0     5
       466.395799      179.552629      162.747115    16     0     0     0     6
        58.914875      164.562429      240.868120     6     0     0     0     3
        94.065797      466.934333      370.739023     6     0     0     0     2
      2044.525704      219.068009      385.889254     1     0     0     0     1
        83.100713      309.601725      274.292904    15     0     0     0     6
      1034.238470      515.589461       20.874638    43     0     0     0     5
       962.783281      549.212002      463.924283    33     0     0     0     2
       211.625795      539.943033       75.227491    11     0     0     0     3
      1289.695659      577.167334      360.892619    68     0     0     0     3
        66.202876      147.614646      550.075648    13     0     0     0     8
       546.639623      436.287231      353.554899    20     0     0     0     4
       405.542203      574.977041       86.295276    14     0     0     0     8
      2122.326554       49.856786      372.683601     1     0     0     0     8
       336.445437      273.755827        5.215769     9     0     0     0     7
      2632.836826      512.283801      481.971562     1     0     0     0     7
       233.285452      211.257095      379.520834    12     0     0     0     6
        57.108066      298.007031      102.924251     6     0     0     0     6
      2336.531886      470.582758       80.690175     1     0     0     0     2
      2566.974060      105.422090      543.585759     1     0     0     0     8
        51.765798      454.733958      494.542521    19     0     0     0     3
        37.812051      508.019293      550.065561    12     0     0     0     2
      1149.865798      411.421172      291.819407    43     0     0     0     1
       267.453294      228.244209      558.780809    15     0     0     0     5
        90.744633      350.486897      281.919792    11     0     0     0     5
      1850.023256      181.935591      208.693436     1     0     0     0     7
      1651.200531      452.744996      562.942120     1     0     0     0     5
      2819.398731      138.961305      493.655901     1     0     0     0     6
      2266.733833      586.080159      277.107552     1     0     0     0     5
      2384.770109      565.702275      464.628143     1     0     0     0     4
       165.788301      311.936281      495.384419    18     0     0     0     1
        17.553300      246.621809      492.116071     8     0     0     0     4
       388.660174      319.769590      578.591750    17     0     0     0     1
       682.747660      449.656128      110.711558    35     0     0     0     7
      2183.679207      587.174471      356.103618     1     0     0     0     6
        48.916370       57.691003       87.725110    13     0     0     0     2
       708.100786       88.515606      447.251056    16     0     0     0     4
       689.923296      100.475312      304.341581    17     0     0     0     8
        41.975833      423.596671       43.217109     6     0     0     0     6
       262.214109      486.369941      469.246564     9     0     0     0     7
       183.282793      295.673536      498.072185    16     0     0     0     5
      2221.047351      513.531054       78.273012     1     0     0     0     3
       674.853288      154.097901      137.525557    21     0     0     0     3
       234.746070       48.915349      213.119743    12     0     0     0     8
       728.653578      558.529893      145.547593    13     0     0     0     8
       210.198602      422.936192      533.232970    14     0     0     0     8
       747.853288       84.682061       73.257039    26     0     0     0     8
       439.720811      491.510330      575.917513    17     0     0     0     7
      1819.309889      299.960311      560.829002     1     0     0     0     4
       827.773841      323.365334       31.173815    22     0     0     0     1
       164.795793        5.865545      346.463486    11     0     0     0     5
      2120.581857      540.964903      148.494538     1     0     0     0     1
       326.283311      225.884091       58.695023     9     0     0     0     1
       210.357719      185.359497      254.469457    12     0     0     0     6
       487.793291       12.172440      481.537494    15     0     0     0     6
       192.959674      574.002168      318.405360     5     0     0     0     4
      2348.096978      192.151547      146.343588     1     0     0     0     4
        48.967685      312.608987      494.730920    10     0     0     0     5
      3349.965420      403.023599      332.226579     1     0     0     0     8
        25.795801       86.314264      288.005575    10     0     0     0     2
       895.318021      318.246729      399.891011    37     0     0     0     5
       343.353288      581.224217      177.380955    16     0     0     0     7
      1441.420748      288.251925      256.758480     1     0     0     0     3
        74.808872       65.379475      251.889313    11     0     0     0     3
      1570.021235      498.455393      318.738666    86     0     0     0     8
       274.188820       96.406110       95.878798    18     0     0     0     4
       245.792228      414.873945      308.008086    12     0     0     0     7