ITEM: TIMESTEP
0
ITEM: NUMBER OF ATOMS
        4222
ITEM: BOX BOUNDS pp pp pp
  0.0000000E+00   5000.00000000000     
  0.0000000E+00   600.000000000000     
  0.0000000E+00   600.000000000000     
ITEM: ATOMS x y z nV nH f3 f4 orient
      1149.733792      411.388638      291.890540    44     0     0     0     1
      1316.382513      124.722632      458.644879     1     0     0     0     4
        41.160799      251.752813      200.747680    10     0     0     0     1
       862.538286      371.748447      353.151078    10     0     0     0     3
       348.543047      442.384127      255.822287     9     0     0     0     1
       365.009563      241.740523      457.472179     6     0     0     0     1
       160.150804      375.260856       54.396930    10     0     0     0     6
       181.153306      449.558845      150.871350    12     0     0     0     5
      2765.373472      564.489477       30.386645     1     0     0     0     1
       228.046075      299.167850      344.493060    12     0     0     0     4
       139.308496       99.708753      169.426930    10     0     0     0     1
       422.853288       69.515889       52.400030    14     0     0     0     6
       573.725958      264.610122      326.546814    13     0     0     0     1
       511.765794      597.577097      385.024851    10     0     0     0     2
       734.462781      301.757007      320.530375    10     0     0     0     1
      2357.649935      240.481758      164.488015     1     0     0     0     3
       206.806940      411.733062      521.475525    15     0     0     0     4
       143.888081      448.554653      515.944276    11     0     0     0     2
      1764.686774      236.170746      590.749744     1     0     0     0     5
       366.015794      183.437966       38.939645    16     0     0     0     8
       154.238298      344.806358       77.683160     6     0     0     0     6
       277.776811       58.336061       86.042871    16     0     0     0     1
       568.058305      448.495736      599.691371    15     0     0     0     7
      1126.505815      546.016033      283.723687    29     0     0     0     5
       290.845811      366.502579       16.339261    10     0     0     0     7
       201.096421      259.402056       83.550522    22     0     0     0     5
       345.260075      249.223641      128.527052    11     0     0     0     4
       724.585888      406.735449      479.400695    11     0     0     0     8
       181.598596      498.122369       45.497513     8     0     0     0     6
       925.177127      180.805712      329.994973    16     0     0     0     8
       203.721289      359.490015      334.420853     6     0     0     0     5
      2790.615798      499.863992      483.646358     1     0     0     0     3
       255.351462       93.794808       45.372476     9     0     0     0     4
       148.010805      431.024968      291.221362     9     0     0     0     4
       670.043291       11.817712      234.459035    19     0     0     0     3
      1727.389928      118.598229       16.698812     1     0     0     0     2
       455.778306      452.366208       34.824270    17     0     0     0     2
      1828.940798      556.412294       67.541681     1     0     0     0     4
        98.373300      175.691809      360.734750    10     0     0     0     6
        69.651121      329.486445      363.625500     8     0     0     0     8
       415.550451       16.464359      224.829081    17     0     0     0     8
      2810.640595      143.566222       60.942007     1     0     0     0     2
        58.053300      184.035222      162.940177     8     0     0     0     8
       104.398302      449.975522      381.075984    14     0     0     0     4
       175.769031      562.873740      413.772172     8     0     0     0     5
      2486.966356      250.269501      213.413631     1     0     0     0     3
       680.973405       23.901814      258.541608    23     0     0     0     4
       446.439381      269.736945      362.190067    12     0     0     0     1
       250.189816        8.620989      513.801677     1     0     0     0     3
       259.981372      309.094888      464.767279     8     0     0     0     2
       528.518383       79.583436      168.924861    13     0     0     0     5
       551.637120      152.243917      287.080999     9     0     0     0     8
        25.403797       74.236140      514.747318     8     0     0     0     7
       815.098283      347.895870      459.396312    23     0     0     0     1
       556.358293      538.633571      275.354940    17     0     0     0     3
       139.301301      267.583643      383.489346    16     0     0     0     8
       694.780778      162.544283      250.965311    14     0     0     0     4
      2113.624154      594.281783      430.070951     1     0     0     0     8
       601.965776       53.036562      169.186153    22     0     0     0     5
        62.439461      407.725892       81.780873    12     0     0     0     2
       206.085277      152.704068      532.383447    11     0     0     0     3
        64.549043      516.650072      567.618198    11     0     0     0     3
       828.118562      388.875957      101.059477    28     0     0     0     8
       662.283403      579.409929      120.827042     9     0     0     0     8
       169.728303      429.826592      447.949957    14     0     0     0     7
       139.433673      227.369842      438.825509    20     0     0     0     7
       282.838304      339.032631      570.164463    11     0     0     0     8
       118.233710       93.969748      199.628577    15     0     0     0     2
        99.958381      112.986360      342.913672     6     0     0     0     8
      2710.225163      587.513840      552.544097     1     0     0     0     8
      2450.189880        6.621735      350.665484     1     0     0     0     8
       775.479672      100.905061      152.413793    11     0     0     0     8
       262.893297      590.549350      490.876430    15     0     0     0     4
        73.435007      525.119306      458.464668    10     0     0     0     6
        54.005375      458.417522       23.843770     8     0     0     0     2
       509.088304      431.206617       12.994199    17     0     0     0     3
       134.122770      267.185139      399.274804    11     0     0     0     1
       551.152203      515.857045      368.671366    13     0     0     0     1
       519.575424      335.795881      206.968790    16     0     0     0     7
        72.908201       60.949585      267.326605     9     0     0     0     8
       292.814287      536.844256      557.935657    12     0     0     0     4
       589.748308       54.403483       93.542786    22     0     0     0     1
       354.047819      559.613046      141.213519     8     0     0     0     1
      3085.277624      251.005235      490.461455     1     0     0     0     2
      2534.318119      545.668004      438.714748     1     0     0     0     4
       208.710520      395.253831      163.402404    13     0     0     0     7
       249.722307      223.130636      419.982918     8     0     0     0     6
       252.127255      521.778489      401.430662     6     0     0     0     4
       261.805133      218.648768       53.875511    12     0     0     0     6
        79.075799      398.126314      188.916273    16     0     0     0     2
       346.654182      255.945704       84.797883    16     0     0     0     4
       520.630815      417.147843       84.319915    18     0     0     0     7
      2421.666443      466.657755       94.497962     1     0     0     0     8
       223.765794      151.440477      544.323283     9     0     0     0     1
       110.138465      593.022134      425.163980    11     0     0     0     5
      1940.577370      231.969989      398.712552     1     0     0     0     7
       355.780992      321.871685      441.890711    16     0     0     0     5
      1551.710286      194.424477      261.276323     1     0     0     0     4
       119.615800       92.810470      329.446009    13     0     0     0     2
       176.510805      489.124431      395.118733    14     0     0     0     8
       662.140825      331.907154      311.811095    28     0     0     0     7
       104.538438       28.148968      252.525323    19     0     0     0     5
      2523.127467      144.763028      252.770859     1     0     0     0     7
        86.982797      597.364840      204.413160    14     0     0     0     6
       511.615153      577.743192      109.063854     6     0     0     0     1
      1541.292509      401.389046      218.320194     1     0     0     0     2
        44.785799      260.962472      265.476717    10     0     0     0     4
       452.529848      572.436707      549.298777    13     0     0     0     4
      2448.715928      290.704627       79.604014     1     0     0     0     6
       697.412881      109.219266        6.539289    27     0     0     0     2
       286.632254      341.342634       43.335343     9     0     0     0     6
       214.718223      484.444000        1.881816    10     0     0     0     8
       203.526101      251.513407      498.302023    11     0     0     0     6
       175.124300      138.633836      248.616420     6     0     0     0     4
       817.265825      304.944725       56.581968    25     0     0     0     3
       120.884568      282.777091      351.450181     8     0     0     0     6
        84.365870      560.084973      319.823223    13     0     0     0     8
       125.108825      505.556386      321.739260     6     0     0     0     8
      2214.340389      108.451062      229.135989     1     0     0     0     6
       593.226256      103.789690      556.890830     6     0     0     0     2
       229.738735      476.486384      493.496560     9     0     0     0     7
       540.284689      371.819602      391.088885    17     0     0     0     3
       215.075671      188.748993      352.542269     8     0     0     0     6
      2290.991148      318.302922      146.875145     1     0     0     0     5
      1986.265746      538.684125      141.586737     1     0     0     0     2
        45.440207      153.156210      224.041954    19     0     0     0     3
      1836.195425      540.163880      495.455631     1     0     0     0     1
       296.144304      365.477618       23.748080    11     0     0     0     7
       212.453294      478.294749      164.509903    11     0     0     0     4
       972.507216      283.326877      251.064878    21     0     0     0     3
       485.615659      228.063894      486.351926    10     0     0     0     3
      1942.791544      151.611667      415.203520     1     0     0     0     2
      2562.606733      137.366775      338.415625     1     0     0     0     2
      2678.901737      510.412471      547.469583     1     0     0     0     2
      1132.701635      368.713346       30.241070    36     0     0     0     5
       785.633317      302.872058      355.432801    15     0     0     0     4
      2879.350195      309.662293      433.850888     1     0     0     0     2
      1861.643066      388.833806      570.605436     1     0     0     0     5
        24.339799      111.746130      371.403501     9     0     0     0     2
      2203.999275      436.196481      522.610452     1     0     0     0     1
       119.208076      139.213147       14.518541    11     0     0     0     3
       772.933571      226.922927      254.420913    20     0     0     0     7
       209.046598      578.720696       21.826076    11     0     0     0     4
       158.175614      342.697825       93.359190    14     0     0     0     7
      1020.976219      269.391061      473.917959    30     0     0     0     2
       424.557454      593.546858      582.177253    18     0     0     0     5
      3160.539142      584.356977      432.613052     1     0     0     0     5
       376.497595      148.016003      320.091229    12     0     0     0     2
       812.133317      384.625587      418.218393    21     0     0     0     7
       632.255855      144.418783      523.023035    20     0     0     0     3
      2105.808963      258.776041      262.380657     1     0     0     0     3
      1910.574637      216.323065      215.909094     1     0     0     0     6
       427.915363      392.245504      164.526400    21     0     0     0     3
       477.012681      433.065298      452.529292     9     0     0     0     1
       155.722171      288.346266      210.239939     8     0     0     0     3
      1543.588161       74.748452      147.452961     1     0     0     0     7
       954.290645      595.407064      563.105916    28     0     0     0     8
       179.727520      566.138615      124.726233     6     0     0     0     3
       559.603849      406.299036      290.053819     9     0     0     0     7
       774.415788      166.608093      423.055643    23     0     0     0     4
      1112.888083      234.998810      359.424846    49     0     0     0     5
       687.665788      420.382568       33.152644    15     0     0     0     4
       539.959526      445.322746      448.681874     9     0     0     0     3
       249.554221      527.788559      131.654946    14     0     0     0     3
       242.930299      235.545350       98.326370     7     0     0     0     7
       495.832800       40.683291      474.079295    15     0     0     0     5
      3135.392430      537.991657       79.483569     1     0     0     0     5
       661.266528      329.794545       76.944857    23     0     0     0     5
      1276.939261      309.525031      468.804912    64     0     0     0     8
      2428.948029      223.141614      208.703342     1     0     0     0     2
       380.370805       50.734912      174.194069    17     0     0     0     3
        91.808368      327.757634      167.242791    10     0     0     0     6
       110.433608       71.605436      536.493596    11     0     0     0     3
       509.572922      151.052550      284.675656    13     0     0     0     5
       606.837709      509.235751       65.800646    17     0     0     0     1
       222.633898      161.502793      362.929235    14     0     0     0     4
       302.714639       94.180762      160.558701    18     0     0     0     5
       726.318669      552.065401      419.741266    17     0     0     0     2
       313.664293      358.962122      178.805958    12     0     0     0     4
       155.919801      457.340674      479.331039    12     0     0     0     4
        77.492899       45.756497      492.838448    10     0     0     0     1
       277.309843      295.038060       39.135524    10     0     0     0     5
       220.214985      272.731090       53.627290    11     0     0     0     8
       358.673296      241.445106      259.680138    16     0     0     0     4
       918.815813      562.538629      525.296579    14     0     0     0     1
      2072.315732      209.412247      518.804298     1     0     0     0     7
      2800.978621       68.092200      551.512227     1     0     0     0     3
      2018.894082      517.288120      574.771322     1     0     0     0     7
      1880.687806      538.967329      373.076089     1     0     0     0     6
        32.676799      359.614038      145.948611     8     0     0     0     5
       911.478288      161.400319      261.049286    30     0     0     0     8
       338.729707      103.519045       46.436422     7     0     0     0     3
       751.830883       56.622438      471.969650    20     0     0     0     6
      2083.188765      233.488735      538.275302     1     0     0     0     2
      2581.522329      183.797916       22.830291     1     0     0     0     6
       645.804685       61.865551      552.333212    15     0     0     0     2
       481.717677      385.501669      146.862514    10     0     0     0     1
       812.229368      147.630514      363.501223    23     0     0     0     4
       495.735796       74.762288      307.342214    16     0     0     0     1
       142.120918      190.742173      371.201235    10     0     0     0     5
      2001.850734      387.734607      228.293299     1     0     0     0     4
       902.755699      177.139776      555.390510    24     0     0     0     4
       305.493062      410.243558      131.215872    13     0     0     0     5
      1000.490973      464.055889      198.589560    31     0     0     0     4
       435.465439      106.505264      229.180257    10     0     0     0     1
       404.973314      503.341986      186.635138    18     0     0     0     2
       256.225801        3.692685      400.682098    18     0     0     0     8
       151.254924      357.752117      409.272187    12     0     0     0     7
      1140.558573      144.456948      218.684990    46     0     0     0     6
       254.083299      100.294067      289.920185    15     0     0     0     3
       439.840806      560.904311      192.408684    18     0     0     0     2
        57.415800      111.976367       51.987346    10     0     0     0     3
       432.226261      514.562427      503.965428    11     0     0     0     3
       617.185718      410.215831      463.551793    23     0     0     0     7
       120.005800       27.406497       95.968911    12     0     0     0     5
       187.751813      323.288635      423.027716    14     0     0     0     8
      1666.582337      503.800251      127.240038     1     0     0     0     7
       362.820419      490.416698      377.974047    16     0     0     0     4
      1621.215013        2.264433      421.433862     1     0     0     0     5
       137.327505      427.823234      370.105537    15     0     0     0     3
       221.083056       39.879602      372.077414    13     0     0     0     6
       367.348563      441.542556      147.411885    16     0     0     0     2
      1484.687352      103.528017      394.645307   104     0     0     0     8
        39.058301      549.576020       41.980779     9     0     0     0     1
       282.024896      240.523790      386.576043    18     0     0     0     4
       121.875105      354.584945        5.760364    11     0     0     0     4
      2413.637631      209.735631      380.414815     1     0     0     0     2
        92.167463      353.343232      329.079436    20     0     0     0     1
       281.715665      183.453892      100.470789    16     0     0     0     2
       399.310252       83.407899      194.152806    21     0     0     0     7
      1690.155976      598.123073       20.599127     1     0     0     0     4
       114.348802      516.736389      104.715247    16     0     0     0     6
      1783.542769      476.875932      502.234236     1     0     0     0     7
       330.152299      543.409111       56.723540    17     0     0     0     1
       409.820787      331.786451       11.837456    12     0     0     0     6
      2295.897002      248.378016      375.926649     1     0     0     0     7
       185.030334      527.904829        9.622710    10     0     0     0     3
      1471.490029        8.169287      273.556830     1     0     0     0     4
       618.584730      490.162624      583.717929     6     0     0     0     5
        50.184801      158.269390      516.957928     8     0     0     0     6
        98.945802      331.260952      299.333912    14     0     0     0     7
       287.205797       79.562705       55.959127    13     0     0     0     4
       764.586873      375.470008      413.571482    14     0     0     0     5
       144.217217      566.402075      364.718186     7     0     0     0     7
       678.865800      458.321686      499.471636    10     0     0     0     3
       290.192495      385.520672      318.293074    19     0     0     0     8
       257.343294      504.170947      229.852752     9     0     0     0     8
       935.497627       19.562138      326.644460    30     0     0     0     7
       181.161806       45.313919       66.035832    18     0     0     0     3
       224.778306      400.478341       23.596297    17     0     0     0     8
       911.006113      353.723130      266.600923    16     0     0     0     6
       885.023271      547.078692       43.509016    16     0     0     0     4
      2713.932374      550.800480      587.461102     1     0     0     0     3
       318.109395      598.243616      116.916657     9     0     0     0     2
      1344.818071      414.734733      116.436061    58     0     0     0     1
       220.066501       61.462556      192.454612    13     0     0     0     6
       342.443989       39.209658       34.163984    22     0     0     0     8
       403.398427      354.053107      344.752913     6     0     0     0     3
       175.595796      293.045406      338.935989    19     0     0     0     3
        37.588151      496.245221      229.202907     6     0     0     0     7
      2250.619369      508.441591      463.707712     1     0     0     0     1
       901.111648       53.617964      592.442989    25     0     0     0     8
       772.058305      587.942192      492.956283    20     0     0     0     5
       120.144800      587.514429      506.267241     8     0     0     0     4
       642.855846      146.748239      177.544934    17     0     0     0     4
      1039.010974      283.188611      110.834982    31     0     0     0     1
        39.362281      492.693417       28.108728     8     0     0     0     3
       150.669137       28.285752      562.446098    14     0     0     0     6
       616.675798      327.053211      298.228535    17     0     0     0     3
       247.950807      545.060778      568.400894    17     0     0     0     8
       131.273145       18.074950       92.129146    10     0     0     0     6
      1213.588178       25.206684      391.649948    39     0     0     0     3
       439.591596      152.782228      558.837602    10     0     0     0     8
       371.397641      461.818757      455.315377    12     0     0     0     6
      1222.024884      408.932463      427.010686    42     0     0     0     2
      3285.609911      555.454144      506.309864     1     0     0     0     5
      2515.224019      599.353480      593.897304     1     0     0     0     1
      1964.630562      237.170543      108.191772     1     0     0     0     1
       134.660799      181.728281      144.263936    14     0     0     0     2
       268.691054      352.410925      503.426697    13     0     0     0     7
       412.140739      383.222256      576.404418     9     0     0     0     3
      2607.147753      249.356582       33.741081     1     0     0     0     4
       221.175559       21.822731      539.056072     9     0     0     0     3
        62.573154      485.869659      508.317194     8     0     0     0     6
       344.487828       65.432366      137.866125    11     0     0     0     6
       339.898302      580.576436      430.644209    14     0     0     0     5
      2942.638132      261.346403       20.033578     1     0     0     0     5
       237.620805      171.798408      565.271606    18     0     0     0     1
       295.273212      522.085095      510.614723     1     0     0     0     3
      1935.469248      439.460999      156.928866     1     0     0     0     6
       283.113298      388.486062      229.137240    15     0     0     0     4
       140.538301      165.502876      192.507587    10     0     0     0     1
      1123.650835      161.243733      369.585161    35     0     0     0     2
       224.823148      231.918010      418.403297     9     0     0     0     7
       208.025301      182.574877      111.684709    12     0     0     0     4
       230.566537      178.018404      422.920508    10     0     0     0     2
        52.081548      299.013051      425.149518     9     0     0     0     2
       151.975991      355.473260      540.664132    14     0     0     0     3
       147.071853      590.842640      595.211937    14     0     0     0     8
       384.257418      266.625661      274.039463    16     0     0     0     1
        91.434293       17.601086      469.003716    14     0     0     0     7
       340.448711      226.503642      368.761714    15     0     0     0     3
      1135.864042      579.128600      459.484723    43     0     0     0     4
       452.274797      242.371521      153.813992    14     0     0     0     3
       130.256966      348.274046       61.330637    10     0     0     0     8
       527.328975      453.275617      598.557153    16     0     0     0     5
       466.395799      179.552629      162.747115    16     0     0     0     6
        58.914875      164.562429      240.868120     6     0     0     0     3
        94.065797      466.934333      370.739023     6     0     0     0     2
      3117.218647      414.754456      444.096509     1     0     0     0     2
        83.100713      309.601725      274.292904    15     0     0     0     6
      1034.238470      515.589461       20.874638    43     0     0     0     5
       962.783281      549.212002      463.924283    33     0     0     0     2
       211.625795      539.943033       75.227491    11     0     0     0     3
      1289.695659      577.167334      360.892619    68     0     0     0     3
        66.202876      147.614646      550.075648    13     0     0     0     8
       546.639623      436.287231      353.554899    20     0     0     0     4
       405.542203      574.977041       86.295276    14     0     0     0     8
      1364.595347       77.415192      325.634813     1     0     0     0     2
       336.445437      273.755827        5.215769     9     0     0     0     7
      2413.026734      284.714076      348.528370     1     0     0     0     6
       233.285452      211.257095      379.520834    12     0     0     0     6
        57.108066      298.007031      102.924251     6     0     0     0     6
      2347.240657      310.068130      237.827459     1     0     0     0     8
      2494.624511      387.083679      201.617600     1     0     0     0     2
        51.765798      454.733958      494.542521    19     0     0     0     3
        37.812051      508.019293      550.065561    12     0     0     0     2
       166.994962      568.148736      323.349866    14     0     0     0     6
       267.453294      228.244209      558.780809    15     0     0     0     5
        90.744633      350.486897      281.919792    11     0     0     0     5
      2463.189569      199.709511      589.002203     1     0     0     0     5
      2275.467206       73.022989      438.786692     1     0     0     0     3
       257.511211      585.308230      169.238476     6     0     0     0     2
      1998.723288      428.054719       47.135385     1     0     0     0     2
      2041.020508      331.847613      317.175288     1     0     0     0     4
       165.788301      311.936281      495.384419    18     0     0     0     1
        17.553300      246.621809      492.116071     8     0     0     0     4
       388.660174      319.769590      578.591750    17     0     0     0     1
       682.747660      449.656128      110.711558    35     0     0     0     7
      2077.332361      238.660312      478.365000     1     0     0     0     5
        48.916370       57.691003       87.725110    13     0     0     0     2
       708.100786       88.515606      447.251056    16     0     0     0     4
       689.923296      100.475312      304.341581    17     0     0     0     8
        41.975833      423.596671       43.217109     6     0     0     0     6
       262.214109      486.369941      469.246564     9     0     0     0     7
       183.282793      295.673536      498.072185    16     0     0     0     5
      1795.679603        9.699601      247.327602     1     0     0     0     6
       674.853288      154.097901      137.525557    21     0     0     0     3
       234.746070       48.915349      213.119743    12     0     0     0     8
       728.653578      558.529893      145.547593    13     0     0     0     8
       210.198602      422.936192      533.232970    14     0     0     0     8
       747.853288       84.682061       73.257039    26     0     0     0     8
       439.720811      491.510330      575.917513    17     0     0     0     7
      1748.094022      124.294506      104.843311     1     0     0     0     1
       827.773841      323.365334       31.173815    22     0     0     0     1
       164.795793        5.865545      346.463486    11     0     0     0     5
      2643.467193      372.627826      332.170703     1     0     0     0     6
       326.283311      225.884091       58.695023     9     0     0     0     1
       210.357719      185.359497      254.469457    12     0     0     0     6
       487.793291       12.172440      481.537494    15     0     0     0     6
      2359.979335      344.616916      163.270972     1     0     0     0     6
      1761.407475      424.828317      322.755839     1     0     0     0     2
        48.967685      312.608987      494.730920    10     0     0     0     5
      3473.406256      339.720606      287.914484     1     0     0     0     7
        25.795801       86.314264      288.005575    10     0     0     0     2
       895.318021      318.246729      399.891011    37     0     0     0     5
       343.353288      581.224217      177.380955    16     0     0     0     7
      2144.600440       53.875627      215.191798     1     0     0     0     3
        74.808872       65.379475      251.889313    11     0     0     0     3
      2711.178073      277.261307      190.088128     1     0     0     0     6
       274.188820       96.406110       95.878798    18     0     0     0     4
       245.792228      414.873945      308.008086    12     0     0     0     7