ITEM: TIMESTEP
0
ITEM: NUMBER OF ATOMS
        4092
ITEM: BOX BOUNDS pp pp pp
  0.0000000E+00   5000.00000000000     
  0.0000000E+00   600.000000000000     
  0.0000000E+00   600.000000000000     
ITEM: ATOMS x y z nV nH f3 f4 orient
      3307.303588      290.501192      192.478199     1     0     0     0     8
      2122.558795      186.744017      251.954650     1     0     0     0     3
        41.160799      251.752813      200.747680    10     0     0     0     1
       862.538286      371.748447      353.151078    10     0     0     0     3
       348.543047      442.384127      255.822287     9     0     0     0     1
       365.009563      241.740523      457.472179     6     0     0     0     1
      2737.528801      434.926646      435.346364     1     0     0     0     8
       181.153306      449.558845      150.871350    12     0     0     0     5
       233.380571      210.792133      379.590356    14     0     0     0     8
       228.046075      299.167850      344.493060    12     0     0     0     4
       139.308496       99.708753      169.426930    10     0     0     0     1
       422.853288       69.515889       52.400030    14     0     0     0     6
       573.725958      264.610122      326.546814    13     0     0     0     1
       511.765794      597.577097      385.024851    10     0     0     0     2
       734.462781      301.757007      320.530375    10     0     0     0     1
       264.443366      263.443115       11.248741     7     0     0     0     3
       206.806940      411.733062      521.475525    15     0     0     0     4
       143.888081      448.554653      515.944276    11     0     0     0     2
      1915.548097      414.669781      568.050861     1     0     0     0     5
       366.015794      183.437966       38.939645    16     0     0     0     8
       154.238298      344.806358       77.683160     6     0     0     0     6
       277.776811       58.336061       86.042871    16     0     0     0     1
       568.058305      448.495736      599.691371    15     0     0     0     7
      1126.505815      546.016033      283.723687    29     0     0     0     5
       290.845811      366.502579       16.339261    10     0     0     0     7
       201.096421      259.402056       83.550522    22     0     0     0     5
       345.260075      249.223641      128.527052    11     0     0     0     4
       724.585888      406.735449      479.400695    11     0     0     0     8
       181.598596      498.122369       45.497513     8     0     0     0     6
       925.177127      180.805712      329.994973    16     0     0     0     8
       203.721289      359.490015      334.420853     6     0     0     0     5
       163.728807      591.570414      172.159880    14     0     0     0     3
       255.351462       93.794808       45.372476     9     0     0     0     4
       148.010805      431.024968      291.221362     9     0     0     0     4
       670.043291       11.817712      234.459035    19     0     0     0     3
       157.357583      306.913048      500.981069     5     0     0     0     3
       455.778306      452.366208       34.824270    17     0     0     0     2
      2409.010780      284.886172      152.506337     1     0     0     0     3
        98.373300      175.691809      360.734750    10     0     0     0     6
      2663.728099      278.869073      507.662659     1     0     0     0     6
       415.550451       16.464359      224.829081    17     0     0     0     8
      1740.277941      118.630921      372.066610     1     0     0     0     2
        58.053300      184.035222      162.940177     8     0     0     0     8
       104.398302      449.975522      381.075984    14     0     0     0     4
      2116.100737      401.038180      585.681075     1     0     0     0     6
        57.319405      296.976869      101.334068     6     0     0     0     7
       680.973405       23.901814      258.541608    23     0     0     0     4
       446.439381      269.736945      362.190067    12     0     0     0     1
       265.803813      557.478002      559.196128    14     0     0     0     2
       259.981372      309.094888      464.767279     8     0     0     0     2
       528.518383       79.583436      168.924861    13     0     0     0     5
       551.637120      152.243917      287.080999     9     0     0     0     8
        25.403797       74.236140      514.747318     8     0     0     0     7
       815.098283      347.895870      459.396312    23     0     0     0     1
       556.358293      538.633571      275.354940    17     0     0     0     3
       139.301301      267.583643      383.489346    16     0     0     0     8
       694.780778      162.544283      250.965311    14     0     0     0     4
       928.486233       76.359977      205.869074    28     0     0     0     1
       601.965776       53.036562      169.186153    22     0     0     0     5
        62.439461      407.725892       81.780873    12     0     0     0     2
       206.085277      152.704068      532.383447    11     0     0     0     3
        64.549043      516.650072      567.618198    11     0     0     0     3
       828.118562      388.875957      101.059477    28     0     0     0     8
       662.283403      579.409929      120.827042     9     0     0     0     8
       169.728303      429.826592      447.949957    14     0     0     0     7
       139.433673      227.369842      438.825509    20     0     0     0     7
       282.838304      339.032631      570.164463    11     0     0     0     8
       118.233710       93.969748      199.628577    15     0     0     0     2
        99.958381      112.986360      342.913672     6     0     0     0     8
      3194.749028      515.759906       85.200907     1     0     0     0     5
        66.503597       60.990594      105.486265    13     0     0     0     7
       775.479672      100.905061      152.413793    11     0     0     0     8
       262.893297      590.549350      490.876430    15     0     0     0     4
        73.435007      525.119306      458.464668    10     0     0     0     6
        54.005375      458.417522       23.843770     8     0     0     0     2
       509.088304      431.206617       12.994199    17     0     0     0     3
       134.122770      267.185139      399.274804    11     0     0     0     1
       551.152203      515.857045      368.671366    13     0     0     0     1
       519.575424      335.795881      206.968790    16     0     0     0     7
        72.908201       60.949585      267.326605     9     0     0     0     8
       292.814287      536.844256      557.935657    12     0     0     0     4
       589.748308       54.403483       93.542786    22     0     0     0     1
       354.047819      559.613046      141.213519     8     0     0     0     1
      3680.325757      234.771202      275.231280     1     0     0     0     1
      2704.809726      386.785779      446.949943     1     0     0     0     7
       208.710520      395.253831      163.402404    13     0     0     0     7
      2253.389351      213.367800      402.808416     1     0     0     0     8
       252.127255      521.778489      401.430662     6     0     0     0     4
       261.805133      218.648768       53.875511    12     0     0     0     6
        79.075799      398.126314      188.916273    16     0     0     0     2
       346.654182      255.945704       84.797883    16     0     0     0     4
       520.630815      417.147843       84.319915    18     0     0     0     7
      2590.587272      388.344193      525.108364     1     0     0     0     2
       223.765794      151.440477      544.323283     9     0     0     0     1
       110.138465      593.022134      425.163980    11     0     0     0     5
       359.631792      500.483450      278.217118     9     0     0     0     1
       355.780992      321.871685      441.890711    16     0     0     0     5
       109.526303      116.314695      559.015593    13     0     0     0     8
       119.615800       92.810470      329.446009    13     0     0     0     2
       176.510805      489.124431      395.118733    14     0     0     0     8
       662.140825      331.907154      311.811095    28     0     0     0     7
       104.538438       28.148968      252.525323    19     0     0     0     5
       171.582196       93.685750      265.447499    10     0     0     0     5
        86.982797      597.364840      204.413160    14     0     0     0     6
       511.615153      577.743192      109.063854     6     0     0     0     1
      1685.306818      418.797369      295.866360     1     0     0     0     6
        44.785799      260.962472      265.476717    10     0     0     0     4
       452.529848      572.436707      549.298777    13     0     0     0     4
       219.145788      199.125693       29.624021    14     0     0     0     3
       697.412881      109.219266        6.539289    27     0     0     0     2
       286.632254      341.342634       43.335343     9     0     0     0     6
       214.718223      484.444000        1.881816    10     0     0     0     8
       203.526101      251.513407      498.302023    11     0     0     0     6
       175.124300      138.633836      248.616420     6     0     0     0     4
       817.265825      304.944725       56.581968    25     0     0     0     3
       120.884568      282.777091      351.450181     8     0     0     0     6
        84.365870      560.084973      319.823223    13     0     0     0     8
       125.108825      505.556386      321.739260     6     0     0     0     8
      2677.778388      471.463396      261.200795     1     0     0     0     2
       593.226256      103.789690      556.890830     6     0     0     0     2
      2561.359369      340.644890      157.155973     1     0     0     0     2
       540.284689      371.819602      391.088885    17     0     0     0     3
       214.895947      189.111612      352.798722     9     0     0     0     5
       193.568597      335.320560      433.418037     5     0     0     0     3
      1286.532877       17.472575      590.639041    84     0     0     0     1
        45.440207      153.156210      224.041954    19     0     0     0     3
      2594.476538       49.170501       73.118276     1     0     0     0     3
       296.144304      365.477618       23.748080    11     0     0     0     7
        41.307883       34.679502      185.482995     6     0     0     0     2
       972.507216      283.326877      251.064878    21     0     0     0     3
       485.615659      228.063894      486.351926    10     0     0     0     3
        40.434123      263.960148      189.165924    10     0     0     0     6
        61.193944      497.278597      390.414911     7     0     0     0     4
       190.258004      266.094399      231.254944    10     0     0     0     3
      1132.701635      368.713346       30.241070    36     0     0     0     5
       785.633317      302.872058      355.432801    15     0     0     0     4
      1558.738998      295.283272      132.548245     1     0     0     0     3
      3141.153789      551.316973      549.752761     1     0     0     0     7
        24.339799      111.746130      371.403501     9     0     0     0     2
       116.500803      324.959042      200.038732     6     0     0     0     4
       119.208076      139.213147       14.518541    11     0     0     0     3
       772.933571      226.922927      254.420913    20     0     0     0     7
       209.046598      578.720696       21.826076    11     0     0     0     4
       158.175614      342.697825       93.359190    14     0     0     0     7
      1020.976219      269.391061      473.917959    30     0     0     0     2
       424.557454      593.546858      582.177253    18     0     0     0     5
      3180.088565      585.943712      186.908980     1     0     0     0     5
       376.497595      148.016003      320.091229    12     0     0     0     2
       812.133317      384.625587      418.218393    21     0     0     0     7
       632.255855      144.418783      523.023035    20     0     0     0     3
      1878.075256      283.620309      157.253770     1     0     0     0     2
      1652.700505      392.243628      156.027667     1     0     0     0     4
       427.915363      392.245504      164.526400    21     0     0     0     3
      2657.655989      469.261832      568.399759     1     0     0     0     4
      2314.432264      482.586389      562.314077     1     0     0     0     8
        44.520799      289.909339      258.072804    11     0     0     0     4
       954.290645      595.407064      563.105916    28     0     0     0     8
       179.727520      566.138615      124.726233     6     0     0     0     3
       559.603849      406.299036      290.053819     9     0     0     0     7
       774.415788      166.608093      423.055643    23     0     0     0     4
      1112.888083      234.998810      359.424846    49     0     0     0     5
       687.665788      420.382568       33.152644    15     0     0     0     4
       539.959526      445.322746      448.681874     9     0     0     0     3
       249.554221      527.788559      131.654946    14     0     0     0     3
       465.399198      484.541700      268.689459    14     0     0     0     8
       495.832800       40.683291      474.079295    15     0     0     0     5
       265.532730      175.150132      477.039045    13     0     0     0     8
       661.266528      329.794545       76.944857    23     0     0     0     5
      1276.939261      309.525031      468.804912    64     0     0     0     8
      2482.628815      540.845654      171.545770     1     0     0     0     8
       380.370805       50.734912      174.194069    17     0     0     0     3
        91.808368      327.757634      167.242791    10     0     0     0     6
       110.433608       71.605436      536.493596    11     0     0     0     3
       509.572922      151.052550      284.675656    13     0     0     0     5
       606.837709      509.235751       65.800646    17     0     0     0     1
      2954.363981      389.804741      540.319948     1     0     0     0     1
       302.714639       94.180762      160.558701    18     0     0     0     5
       726.318669      552.065401      419.741266    17     0     0     0     2
       313.664293      358.962122      178.805958    12     0     0     0     4
       155.919801      457.340674      479.331039    12     0     0     0     4
        77.492899       45.756497      492.838448    10     0     0     0     1
       277.309843      295.038060       39.135524    10     0     0     0     5
       220.214985      272.731090       53.627290    11     0     0     0     8
       358.673296      241.445106      259.680138    16     0     0     0     4
       918.815813      562.538629      525.296579    14     0     0     0     1
       161.388761      101.658001      101.840204    16     0     0     0     5
        53.545718      382.043096      424.987898     6     0     0     0     2
      2550.083016       65.892301      164.064886     1     0     0     0     6
      1760.950409      177.439340      488.818593     1     0     0     0     1
        32.676799      359.614038      145.948611     8     0     0     0     5
       911.478288      161.400319      261.049286    30     0     0     0     8
      3571.456367       97.022640      203.764391     1     0     0     0     4
       751.830883       56.622438      471.969650    20     0     0     0     6
      2684.382887       86.979360      595.247543     1     0     0     0     6
      3090.067088      168.187562       54.923254     1     0     0     0     6
       645.804685       61.865551      552.333212    15     0     0     0     2
       481.717677      385.501669      146.862514    10     0     0     0     1
       812.229368      147.630514      363.501223    23     0     0     0     4
       212.588405      483.086964      405.468555    11     0     0     0     3
       142.120918      190.742173      371.201235    10     0     0     0     5
      2403.993052      591.134111      365.500367     1     0     0     0     3
       902.755699      177.139776      555.390510    24     0     0     0     4
       305.493062      410.243558      131.215872    13     0     0     0     5
      1000.490973      464.055889      198.589560    31     0     0     0     4
       435.465439      106.505264      229.180257    10     0     0     0     1
       404.973314      503.341986      186.635138    18     0     0     0     2
       256.225801        3.692685      400.682098    18     0     0     0     8
       151.254924      357.752117      409.272187    12     0     0     0     7
      1140.558573      144.456948      218.684990    46     0     0     0     6
       254.083299      100.294067      289.920185    15     0     0     0     3
       439.840806      560.904311      192.408684    18     0     0     0     2
        57.415800      111.976367       51.987346    10     0     0     0     3
       432.226261      514.562427      503.965428    11     0     0     0     3
       617.185718      410.215831      463.551793    23     0     0     0     7
       120.005800       27.406497       95.968911    12     0     0     0     5
      2314.225008      266.126306      572.248720     1     0     0     0     6
      2830.860120      567.180684      143.283755     1     0     0     0     4
       362.820419      490.416698      377.974047    16     0     0     0     4
       109.114351      386.627031       76.172220     9     0     0     0     5
       137.327505      427.823234      370.105537    15     0     0     0     3
       221.083056       39.879602      372.077414    13     0     0     0     6
       367.348563      441.542556      147.411885    16     0     0     0     2
      2359.945655      257.146968      443.102062     1     0     0     0     7
        39.058301      549.576020       41.980779     9     0     0     0     1
       282.024896      240.523790      386.576043    18     0     0     0     4
       121.875105      354.584945        5.760364    11     0     0     0     4
      1192.087059       19.696044      367.908656    51     0     0     0     5
        92.167463      353.343232      329.079436    20     0     0     0     1
       281.715665      183.453892      100.470789    16     0     0     0     2
       399.310252       83.407899      194.152806    21     0     0     0     7
        15.823468      402.245768       37.598758     6     0     0     0     1
       114.348802      516.736389      104.715247    16     0     0     0     6
       269.395799      347.170602       22.217623    12     0     0     0     1
       330.152299      543.409111       56.723540    17     0     0     0     1
       409.820787      331.786451       11.837456    12     0     0     0     6
      1982.460612      590.572362      597.672622     1     0     0     0     5
       185.030334      527.904829        9.622710    10     0     0     0     3
      2987.297443      536.331850      276.104913     1     0     0     0     1
       618.584730      490.162624      583.717929     6     0     0     0     5
        50.184801      158.269390      516.957928     8     0     0     0     6
        98.945802      331.260952      299.333912    14     0     0     0     7
       287.205797       79.562705       55.959127    13     0     0     0     4
       764.586873      375.470008      413.571482    14     0     0     0     5
       277.122259      522.772606      169.152329     4     0     0     0     8
       678.865800      458.321686      499.471636    10     0     0     0     3
       290.192495      385.520672      318.293074    19     0     0     0     8
       257.343294      504.170947      229.852752     9     0     0     0     8
       935.497627       19.562138      326.644460    30     0     0     0     7
       181.161806       45.313919       66.035832    18     0     0     0     3
       224.778306      400.478341       23.596297    17     0     0     0     8
       911.006113      353.723130      266.600923    16     0     0     0     6
       885.023271      547.078692       43.509016    16     0     0     0     4
        59.216091       22.054492      556.399879     6     0     0     0     4
       318.109395      598.243616      116.916657     9     0     0     0     2
      1344.818071      414.734733      116.436061    58     0     0     0     1
       220.066501       61.462556      192.454612    13     0     0     0     6
       342.443989       39.209658       34.163984    22     0     0     0     8
       403.398427      354.053107      344.752913     6     0     0     0     3
       175.595796      293.045406      338.935989    19     0     0     0     3
        37.588151      496.245221      229.202907     6     0     0     0     7
      1548.059623      359.984651       55.237363     1     0     0     0     5
       901.111648       53.617964      592.442989    25     0     0     0     8
       772.058305      587.942192      492.956283    20     0     0     0     5
       120.144800      587.514429      506.267241     8     0     0     0     4
       642.855846      146.748239      177.544934    17     0     0     0     4
      1039.010974      283.188611      110.834982    31     0     0     0     1
      1143.932752       92.304946      448.671828    47     0     0     0     7
       150.669137       28.285752      562.446098    14     0     0     0     6
       616.675798      327.053211      298.228535    17     0     0     0     3
       247.950807      545.060778      568.400894    17     0     0     0     8
       131.273145       18.074950       92.129146    10     0     0     0     6
      1213.588178       25.206684      391.649948    39     0     0     0     3
       439.591596      152.782228      558.837602    10     0     0     0     8
       371.397641      461.818757      455.315377    12     0     0     0     6
      1222.024884      408.932463      427.010686    42     0     0     0     2
      2851.889703      531.360345      392.847404     1     0     0     0     8
       293.652404      531.204897      518.749261    15     0     0     0     4
      2134.904233      558.929867       42.885744     1     0     0     0     1
       134.660799      181.728281      144.263936    14     0     0     0     2
       268.691054      352.410925      503.426697    13     0     0     0     7
       412.140739      383.222256      576.404418     9     0     0     0     3
      3189.810580       17.506466      518.195198     1     0     0     0     7
       221.175559       21.822731      539.056072     9     0     0     0     3
        62.573154      485.869659      508.317194     8     0     0     0     6
       344.487828       65.432366      137.866125    11     0     0     0     6
       339.898302      580.576436      430.644209    14     0     0     0     5
       103.655110      499.146733      500.577295     6     0     0     0     6
      2241.153234      380.879632      462.114372     1     0     0     0     5
      2739.678545      104.182815       93.058716     1     0     0     0     7
       323.427879      237.589470      494.332069    12     0     0     0     2
       283.113298      388.486062      229.137240    15     0     0     0     4
       140.538301      165.502876      192.507587    10     0     0     0     1
      1123.650835      161.243733      369.585161    35     0     0     0     2
       224.823148      231.918010      418.403297     9     0     0     0     7
       208.025301      182.574877      111.684709    12     0     0     0     4
       230.566537      178.018404      422.920508    10     0     0     0     2
        52.081548      299.013051      425.149518     9     0     0     0     2
       151.975991      355.473260      540.664132    14     0     0     0     3
       147.071853      590.842640      595.211937    14     0     0     0     8
       384.257418      266.625661      274.039463    16     0     0     0     1
        91.434293       17.601086      469.003716    14     0     0     0     7
       340.448711      226.503642      368.761714    15     0     0     0     3
      1135.864042      579.128600      459.484723    43     0     0     0     4
       452.274797      242.371521      153.813992    14     0     0     0     3
       130.256966      348.274046       61.330637    10     0     0     0     8
       527.328975      453.275617      598.557153    16     0     0     0     5
       466.395799      179.552629      162.747115    16     0     0     0     6
        58.914875      164.562429      240.868120     6     0     0     0     3
        94.065797      466.934333      370.739023     6     0     0     0     2
      3361.933936      324.537559       33.012200     1     0     0     0     6
        83.100713      309.601725      274.292904    15     0     0     0     6
      1034.238470      515.589461       20.874638    43     0     0     0     5
       962.783281      549.212002      463.924283    33     0     0     0     2
       211.625795      539.943033       75.227491    11     0     0     0     3
      1289.695659      577.167334      360.892619    68     0     0     0     3
        66.202876      147.614646      550.075648    13     0     0     0     8
       546.639623      436.287231      353.554899    20     0     0     0     4
       405.542203      574.977041       86.295276    14     0     0     0     8
        17.423476      246.491985      492.641539     8     0     0     0     1
       336.445437      273.755827        5.215769     9     0     0     0     7
        59.518343      244.759595      310.767365     6     0     0     0     4
      2273.934688      561.673773      589.759656     1     0     0     0     8
      2253.204905      484.006799      400.871478     1     0     0     0     5
      3413.527970      211.863593       69.020662     1     0     0     0     8
      1811.751950      113.233064      545.992298     1     0     0     0     5
        51.765798      454.733958      494.542521    19     0     0     0     3
        37.812051      508.019293      550.065561    12     0     0     0     2
       166.994962      568.148736      323.349866    14     0     0     0     6
       267.453294      228.244209      558.780809    15     0     0     0     5
        90.744633      350.486897      281.919792    11     0     0     0     5
      2384.711036      164.138503      177.852510     1     0     0     0     8
        36.653301      394.886068      332.964735    13     0     0     0     8
       257.511211      585.308230      169.238476     6     0     0     0     2
      2479.544830      491.574921      455.305768     1     0     0     0     4
      2347.934817      560.241566      200.742981     1     0     0     0     4
      1612.512287      417.367724      246.275682     1     0     0     0     4
      1750.358535      414.380076      534.960779     1     0     0     0     8
       388.660174      319.769590      578.591750    17     0     0     0     1
       682.747660      449.656128      110.711558    35     0     0     0     7
       859.163286      141.536095      533.489599    19     0     0     0     6
        48.916370       57.691003       87.725110    13     0     0     0     2
       708.100786       88.515606      447.251056    16     0     0     0     4
       689.923296      100.475312      304.341581    17     0     0     0     8
        41.975833      423.596671       43.217109     6     0     0     0     6
       262.214109      486.369941      469.246564     9     0     0     0     7
       183.282793      295.673536      498.072185    16     0     0     0     5
      1818.764165      411.615553      451.326405     1     0     0     0     6
       674.853288      154.097901      137.525557    21     0     0     0     3
       234.746070       48.915349      213.119743    12     0     0     0     8
       728.653578      558.529893      145.547593    13     0     0     0     8
       210.198602      422.936192      533.232970    14     0     0     0     8
       747.853288       84.682061       73.257039    26     0     0     0     8
       439.720811      491.510330      575.917513    17     0     0     0     7
      2655.421270      233.493489      433.999479     1     0     0     0     3
       827.773841      323.365334       31.173815    22     0     0     0     1
       164.795793        5.865545      346.463486    11     0     0     0     5
       104.806398      468.222688      395.678388     6     0     0     0     1
       510.409583      423.763467      458.884691    16     0     0     0     8
       210.357719      185.359497      254.469457    12     0     0     0     6
       487.793291       12.172440      481.537494    15     0     0     0     6
      1749.187321       40.170961      594.236224     1     0     0     0     4
      2674.994609      263.305452       96.164417     1     0     0     0     3
        48.967685      312.608987      494.730920    10     0     0     0     5
      3198.038237      226.183503      549.243472     1     0     0     0     8
        25.795801       86.314264      288.005575    10     0     0     0     2
       895.318021      318.246729      399.891011    37     0     0     0     5
       343.353288      581.224217      177.380955    16     0     0     0     7
      2585.199847      348.700043      521.409851     1     0     0     0     2
        74.808872       65.379475      251.889313    11     0     0     0     3
        52.299401      427.211016       30.168207     6     0     0     0     8
       274.188820       96.406110       95.878798    18     0     0     0     4
       245.792228      414.873945      308.008086    12     0     0     0     7