ITEM: TIMESTEP
0
ITEM: NUMBER OF ATOMS
        3945
ITEM: BOX BOUNDS pp pp pp
  0.0000000E+00   5000.00000000000     
  0.0000000E+00   600.000000000000     
  0.0000000E+00   600.000000000000     
ITEM: ATOMS x y z nV nH f3 f4 orient
       182.323319      599.334200       18.835103    11     0     0     0     8
       401.007412      167.874913      520.148061     9     0     0     0     8
        41.160799      251.752813      200.747680    10     0     0     0     1
       862.538286      371.748447      353.151078    10     0     0     0     3
       348.543047      442.384127      255.822287     9     0     0     0     1
       270.656799      282.219578      322.228884    15     0     0     0     6
       239.443571      406.593522      234.470194     7     0     0     0     2
       181.153306      449.558845      150.871350    12     0     0     0     5
       233.380571      210.792133      379.590356    14     0     0     0     8
       228.046075      299.167850      344.493060    12     0     0     0     4
       139.308496       99.708753      169.426930    10     0     0     0     1
       422.853288       69.515889       52.400030    14     0     0     0     6
       573.725958      264.610122      326.546814    13     0     0     0     1
       511.765794      597.577097      385.024851    10     0     0     0     2
       734.462781      301.757007      320.530375    10     0     0     0     1
       337.362265      501.676432       84.928335    17     0     0     0     8
       206.806940      411.733062      521.475525    15     0     0     0     4
       143.888081      448.554653      515.944276    11     0     0     0     2
       282.174990       12.158802      513.598283     7     0     0     0     3
       366.015794      183.437966       38.939645    16     0     0     0     8
      1520.472494      524.469610      399.482641   104     0     0     0     2
       157.233329      309.292143      121.106528    12     0     0     0     7
       568.058305      448.495736      599.691371    15     0     0     0     7
      1126.505815      546.016033      283.723687    29     0     0     0     5
       290.845811      366.502579       16.339261    10     0     0     0     7
      2209.746125      225.525146       43.808515     1     0     0     0     5
       345.260075      249.223641      128.527052    11     0     0     0     4
       724.585888      406.735449      479.400695    11     0     0     0     8
      2502.805626      148.371033      482.862785     1     0     0     0     1
       925.177127      180.805712      329.994973    16     0     0     0     8
       203.721289      359.490015      334.420853     6     0     0     0     5
       144.251698       20.629716      128.446133    13     0     0     0     8
       248.656119      375.784728      392.442704    14     0     0     0     3
       148.010805      431.024968      291.221362     9     0     0     0     4
       670.043291       11.817712      234.459035    19     0     0     0     3
      1845.421054       78.184695      113.637158     1     0     0     0     2
       455.778306      452.366208       34.824270    17     0     0     0     2
      3275.335981       93.662657       66.499581     1     0     0     0     4
        98.373300      175.691809      360.734750    10     0     0     0     6
       109.433275      413.518020      180.254588    14     0     0     0     7
       415.550451       16.464359      224.829081    17     0     0     0     8
      3770.450656      357.121999      191.565150     1     0     0     0     1
        58.053300      184.035222      162.940177     8     0     0     0     8
       104.398302      449.975522      381.075984    14     0     0     0     4
      2273.969235      195.573072      144.662400     1     0     0     0     5
       173.423433      115.836721      482.451166     8     0     0     0     7
       680.973405       23.901814      258.541608    23     0     0     0     4
       446.439381      269.736945      362.190067    12     0     0     0     1
       265.803813      557.478002      559.196128    14     0     0     0     2
      2149.193807      142.149250      133.030361     1     0     0     0     8
        50.552227      165.523316      363.141402     6     0     0     0     1
       551.637120      152.243917      287.080999     9     0     0     0     8
        25.403797       74.236140      514.747318     8     0     0     0     7
       815.098283      347.895870      459.396312    23     0     0     0     1
       556.358293      538.633571      275.354940    17     0     0     0     3
       139.301301      267.583643      383.489346    16     0     0     0     8
       694.780778      162.544283      250.965311    14     0     0     0     4
       928.486233       76.359977      205.869074    28     0     0     0     1
       601.965776       53.036562      169.186153    22     0     0     0     5
        62.439461      407.725892       81.780873    12     0     0     0     2
       587.432258      494.613901      382.735678    15     0     0     0     8
        64.549043      516.650072      567.618198    11     0     0     0     3
       828.118562      388.875957      101.059477    28     0     0     0     8
       662.283403      579.409929      120.827042     9     0     0     0     8
       169.728303      429.826592      447.949957    14     0     0     0     7
       139.433673      227.369842      438.825509    20     0     0     0     7
       282.838304      339.032631      570.164463    11     0     0     0     8
       118.233710       93.969748      199.628577    15     0     0     0     2
        99.958381      112.986360      342.913672     6     0     0     0     8
      3001.386745       85.560564      312.966535     1     0     0     0     5
        66.503597       60.990594      105.486265    13     0     0     0     7
       775.479672      100.905061      152.413793    11     0     0     0     8
       262.893297      590.549350      490.876430    15     0     0     0     4
        73.435007      525.119306      458.464668    10     0     0     0     6
        54.005375      458.417522       23.843770     8     0     0     0     2
       509.088304      431.206617       12.994199    17     0     0     0     3
       134.122770      267.185139      399.274804    11     0     0     0     1
       551.152203      515.857045      368.671366    13     0     0     0     1
       519.575424      335.795881      206.968790    16     0     0     0     7
        72.908201       60.949585      267.326605     9     0     0     0     8
       292.814287      536.844256      557.935657    12     0     0     0     4
       589.748308       54.403483       93.542786    22     0     0     0     1
      1286.198258      231.319798      576.901699     1     0     0     0     1
        67.655322      425.563544       56.621676    15     0     0     0     5
       173.917512      544.683287      579.277223     9     0     0     0     5
       208.710520      395.253831      163.402404    13     0     0     0     7
       202.391599      247.630424      454.420919     7     0     0     0     1
       252.127255      521.778489      401.430662     6     0     0     0     4
       261.805133      218.648768       53.875511    12     0     0     0     6
      2401.302080      196.067036      536.451571     1     0     0     0     4
       346.654182      255.945704       84.797883    16     0     0     0     4
       520.630815      417.147843       84.319915    18     0     0     0     7
       141.251179      586.850275      306.919239    12     0     0     0     1
       223.765794      151.440477      544.323283     9     0     0     0     1
       204.554592       85.701163      145.854655    17     0     0     0     3
       359.631792      500.483450      278.217118     9     0     0     0     1
       355.780992      321.871685      441.890711    16     0     0     0     5
       109.526303      116.314695      559.015593    13     0     0     0     8
       119.615800       92.810470      329.446009    13     0     0     0     2
       176.510805      489.124431      395.118733    14     0     0     0     8
       662.140825      331.907154      311.811095    28     0     0     0     7
       104.538438       28.148968      252.525323    19     0     0     0     5
       171.582196       93.685750      265.447499    10     0     0     0     5
        86.982797      597.364840      204.413160    14     0     0     0     6
       511.615153      577.743192      109.063854     6     0     0     0     1
       403.088434      354.257595      345.075950     5     0     0     0     4
        44.785799      260.962472      265.476717    10     0     0     0     4
       452.529848      572.436707      549.298777    13     0     0     0     4
       219.136391      199.247368       29.387209    15     0     0     0     7
       697.412881      109.219266        6.539289    27     0     0     0     2
       286.632254      341.342634       43.335343     9     0     0     0     6
       214.718223      484.444000        1.881816    10     0     0     0     8
       144.583159      204.539244      583.459566    16     0     0     0     1
       175.124300      138.633836      248.616420     6     0     0     0     4
       817.265825      304.944725       56.581968    25     0     0     0     3
       120.884568      282.777091      351.450181     8     0     0     0     6
        84.365870      560.084973      319.823223    13     0     0     0     8
       125.108825      505.556386      321.739260     6     0     0     0     8
       362.248534      176.979418       64.132823    14     0     0     0     8
       593.226256      103.789690      556.890830     6     0     0     0     2
      3517.980656      159.832835      322.113789     1     0     0     0     3
       540.284689      371.819602      391.088885    17     0     0     0     3
       214.895947      189.111612      352.798722     9     0     0     0     5
      3120.685560       20.138579      191.679223     1     0     0     0     3
      1286.532877       17.472575      590.639041    84     0     0     0     1
        45.440207      153.156210      224.041954    19     0     0     0     3
       104.519631      352.561359      373.543384    13     0     0     0     2
       296.144304      365.477618       23.748080    11     0     0     0     7
        41.307883       34.679502      185.482995     6     0     0     0     2
       972.507216      283.326877      251.064878    21     0     0     0     3
       485.615659      228.063894      486.351926    10     0     0     0     3
        40.434123      263.960148      189.165924    10     0     0     0     6
      1905.338051      132.504640      567.536901     1     0     0     0     7
       190.258004      266.094399      231.254944    10     0     0     0     3
      1132.701635      368.713346       30.241070    36     0     0     0     5
       785.633317      302.872058      355.432801    15     0     0     0     4
      2911.198843       76.394988      246.837284     1     0     0     0     1
       229.566701      353.696173       31.245185    17     0     0     0     4
      2885.976808      265.301687      308.044658     1     0     0     0     1
      2069.073655      550.749804      358.597767     1     0     0     0     2
       119.208076      139.213147       14.518541    11     0     0     0     3
       772.933571      226.922927      254.420913    20     0     0     0     7
       209.046598      578.720696       21.826076    11     0     0     0     4
        73.348299      497.490170       78.137240     6     0     0     0     7
      1020.976219      269.391061      473.917959    30     0     0     0     2
       424.557454      593.546858      582.177253    18     0     0     0     5
      1936.986987      477.844655      440.990840     1     0     0     0     7
       376.497595      148.016003      320.091229    12     0     0     0     2
       812.133317      384.625587      418.218393    21     0     0     0     7
       632.255855      144.418783      523.023035    20     0     0     0     3
        75.038198      576.873741      438.483727    12     0     0     0     1
      2339.621760      411.000491       10.352234     1     0     0     0     8
       427.915363      392.245504      164.526400    21     0     0     0     3
       250.539796      350.891869      310.650801    13     0     0     0     3
      2113.491449      302.019523      188.053627     1     0     0     0     4
        44.520799      289.909339      258.072804    11     0     0     0     4
       954.290645      595.407064      563.105916    28     0     0     0     8
       179.727520      566.138615      124.726233     6     0     0     0     3
       559.603849      406.299036      290.053819     9     0     0     0     7
       774.415788      166.608093      423.055643    23     0     0     0     4
      1112.888083      234.998810      359.424846    49     0     0     0     5
       687.665788      420.382568       33.152644    15     0     0     0     4
      2636.865232      344.799287      358.321255     1     0     0     0     2
       249.554221      527.788559      131.654946    14     0     0     0     3
       465.399198      484.541700      268.689459    14     0     0     0     8
       495.832800       40.683291      474.079295    15     0     0     0     5
       173.141359      479.659116      519.213932    10     0     0     0     6
       661.266528      329.794545       76.944857    23     0     0     0     5
      1276.939261      309.525031      468.804912    64     0     0     0     8
      2893.478935      270.987721      310.668449     1     0     0     0     4
       380.370805       50.734912      174.194069    17     0     0     0     3
        91.808368      327.757634      167.242791    10     0     0     0     6
       110.433608       71.605436      536.493596    11     0     0     0     3
       509.572922      151.052550      284.675656    13     0     0     0     5
       606.837709      509.235751       65.800646    17     0     0     0     1
      3613.924887      364.946687      543.147474     1     0     0     0     5
       302.714639       94.180762      160.558701    18     0     0     0     5
       726.318669      552.065401      419.741266    17     0     0     0     2
       313.664293      358.962122      178.805958    12     0     0     0     4
       155.919801      457.340674      479.331039    12     0     0     0     4
        77.492899       45.756497      492.838448    10     0     0     0     1
       277.309843      295.038060       39.135524    10     0     0     0     5
       388.321436      175.190764      292.501060     6     0     0     0     4
       358.673296      241.445106      259.680138    16     0     0     0     4
       918.815813      562.538629      525.296579    14     0     0     0     1
       184.455127      194.002185      475.656599    10     0     0     0     4
        53.545718      382.043096      424.987898     6     0     0     0     2
       502.238610      231.930085       23.010387    10     0     0     0     6
      1773.153983      468.589763      246.475019     1     0     0     0     3
      4142.843621      395.830289      252.075194     1     0     0     0     7
       911.478288      161.400319      261.049286    30     0     0     0     8
      2749.047344      370.339729      463.194113     1     0     0     0     4
       751.830883       56.622438      471.969650    20     0     0     0     6
       521.572208      487.313456      205.146984    21     0     0     0     7
       442.531817      436.030326       12.459806    12     0     0     0     2
       645.804685       61.865551      552.333212    15     0     0     0     2
       481.717677      385.501669      146.862514    10     0     0     0     1
       812.229368      147.630514      363.501223    23     0     0     0     4
       212.588405      483.086964      405.468555    11     0     0     0     3
       142.120918      190.742173      371.201235    10     0     0     0     5
      2676.233192      595.066234      108.022705     1     0     0     0     3
       902.755699      177.139776      555.390510    24     0     0     0     4
       305.493062      410.243558      131.215872    13     0     0     0     5
      1000.490973      464.055889      198.589560    31     0     0     0     4
       435.465439      106.505264      229.180257    10     0     0     0     1
       404.973314      503.341986      186.635138    18     0     0     0     2
       256.225801        3.692685      400.682098    18     0     0     0     8
       151.254924      357.752117      409.272187    12     0     0     0     7
      1523.806880      302.945593      141.210304     1     0     0     0     7
       254.083299      100.294067      289.920185    15     0     0     0     3
       439.840806      560.904311      192.408684    18     0     0     0     2
        57.415800      111.976367       51.987346    10     0     0     0     3
       432.226261      514.562427      503.965428    11     0     0     0     3
       617.185718      410.215831      463.551793    23     0     0     0     7
       120.005800       27.406497       95.968911    12     0     0     0     5
       398.643297      295.518090      204.707591    11     0     0     0     3
        68.075289      468.437815      116.876551     6     0     0     0     6
       362.820419      490.416698      377.974047    16     0     0     0     4
      1260.556372      169.963673       42.246266    89     0     0     0     7
       137.327505      427.823234      370.105537    15     0     0     0     3
       221.083056       39.879602      372.077414    13     0     0     0     6
       367.348563      441.542556      147.411885    16     0     0     0     2
      3227.383062      419.254407      529.104784     1     0     0     0     7
        39.058301      549.576020       41.980779     9     0     0     0     1
       200.915040      259.255327       83.455168    23     0     0     0     5
        36.880800      293.569453      570.477250    12     0     0     0     1
      1192.087059       19.696044      367.908656    51     0     0     0     5
        92.167463      353.343232      329.079436    20     0     0     0     1
       281.715665      183.453892      100.470789    16     0     0     0     2
       399.310252       83.407899      194.152806    21     0     0     0     7
        15.823468      402.245768       37.598758     6     0     0     0     1
      3613.491830      141.794018      342.427094     1     0     0     0     5
       269.395799      347.170602       22.217623    12     0     0     0     1
       330.152299      543.409111       56.723540    17     0     0     0     1
       409.820787      331.786451       11.837456    12     0     0     0     6
       265.262538      175.138138      477.272392    14     0     0     0     3
       185.030334      527.904829        9.622710    10     0     0     0     3
      2926.739897      198.100620      539.268136     1     0     0     0     5
      4195.789740      215.002843      319.874336     1     0     0     0     7
      2582.603693      501.233761      279.465716     1     0     0     0     8
        98.945802      331.260952      299.333912    14     0     0     0     7
        78.969773      397.912500      188.749698    17     0     0     0     8
       764.586873      375.470008      413.571482    14     0     0     0     5
      2746.272950      501.044540      592.007238     1     0     0     0     4
       678.865800      458.321686      499.471636    10     0     0     0     3
       290.192495      385.520672      318.293074    19     0     0     0     8
       257.343294      504.170947      229.852752     9     0     0     0     8
       935.497627       19.562138      326.644460    30     0     0     0     7
       181.161806       45.313919       66.035832    18     0     0     0     3
       224.778306      400.478341       23.596297    17     0     0     0     8
       911.006113      353.723130      266.600923    16     0     0     0     6
       885.023271      547.078692       43.509016    16     0     0     0     4
        59.216091       22.054492      556.399879     6     0     0     0     4
       318.109395      598.243616      116.916657     9     0     0     0     2
      2149.987230      273.492897       58.582195     1     0     0     0     3
       220.066501       61.462556      192.454612    13     0     0     0     6
       100.177352      175.259978      226.856513    16     0     0     0     8
       447.152260      120.057800      482.755878    28     0     0     0     1
       175.595796      293.045406      338.935989    19     0     0     0     3
       407.506394      478.941088      374.000183     6     0     0     0     2
      2011.237783      159.179113      366.163186     1     0     0     0     5
       901.111648       53.617964      592.442989    25     0     0     0     8
       772.058305      587.942192      492.956283    20     0     0     0     5
       120.144800      587.514429      506.267241     8     0     0     0     4
       642.855846      146.748239      177.544934    17     0     0     0     4
      1039.010974      283.188611      110.834982    31     0     0     0     1
      1143.932752       92.304946      448.671828    47     0     0     0     7
       150.669137       28.285752      562.446098    14     0     0     0     6
       616.675798      327.053211      298.228535    17     0     0     0     3
       247.950807      545.060778      568.400894    17     0     0     0     8
       131.273145       18.074950       92.129146    10     0     0     0     6
      1213.588178       25.206684      391.649948    39     0     0     0     3
       439.591596      152.782228      558.837602    10     0     0     0     8
       371.397641      461.818757      455.315377    12     0     0     0     6
       243.250205      235.445864       97.897780     6     0     0     0     8
       132.420983      521.750260      391.906859    11     0     0     0     4
       293.652404      531.204897      518.749261    15     0     0     0     4
      3241.651907      257.405169      286.738398     1     0     0     0     1
       134.660799      181.728281      144.263936    14     0     0     0     2
       268.691054      352.410925      503.426697    13     0     0     0     7
       412.140739      383.222256      576.404418     9     0     0     0     3
       136.596665      472.769832      297.592851     5     0     0     0     6
       221.175559       21.822731      539.056072     9     0     0     0     3
      2674.339046      135.053176      500.678679     1     0     0     0     2
       344.487828       65.432366      137.866125    11     0     0     0     6
       339.898302      580.576436      430.644209    14     0     0     0     5
       103.655110      499.146733      500.577295     6     0     0     0     6
       371.558145      109.341965      152.573831    22     0     0     0     3
      3465.035875       28.349301      243.872557     1     0     0     0     6
        51.451744      189.770964      183.560343     6     0     0     0     4
       283.113298      388.486062      229.137240    15     0     0     0     4
       140.538301      165.502876      192.507587    10     0     0     0     1
      1123.650835      161.243733      369.585161    35     0     0     0     2
       224.823148      231.918010      418.403297     9     0     0     0     7
       208.025301      182.574877      111.684709    12     0     0     0     4
       230.566537      178.018404      422.920508    10     0     0     0     2
        52.081548      299.013051      425.149518     9     0     0     0     2
       151.975991      355.473260      540.664132    14     0     0     0     3
       147.071853      590.842640      595.211937    14     0     0     0     8
       384.257418      266.625661      274.039463    16     0     0     0     1
        91.434293       17.601086      469.003716    14     0     0     0     7
       340.448711      226.503642      368.761714    15     0     0     0     3
      1135.864042      579.128600      459.484723    43     0     0     0     4
       452.274797      242.371521      153.813992    14     0     0     0     3
       130.256966      348.274046       61.330637    10     0     0     0     8
       513.385789      531.781588       85.953419     6     0     0     0     6
       466.395799      179.552629      162.747115    16     0     0     0     6
      3044.700100      134.336202       48.189799     1     0     0     0     4
        94.065797      466.934333      370.739023     6     0     0     0     2
      3789.068322      521.705673       29.743742     1     0     0     0     7
        83.100713      309.601725      274.292904    15     0     0     0     6
      1034.238470      515.589461       20.874638    43     0     0     0     5
       962.783281      549.212002      463.924283    33     0     0     0     2
      3920.020018      236.573710      276.446546     1     0     0     0     8
      1289.695659      577.167334      360.892619    68     0     0     0     3
        66.202876      147.614646      550.075648    13     0     0     0     8
       546.639623      436.287231      353.554899    20     0     0     0     4
       405.542203      574.977041       86.295276    14     0     0     0     8
       138.005340      304.929977      116.711767    13     0     0     0     4
       336.445437      273.755827        5.215769     9     0     0     0     7
        59.518343      244.759595      310.767365     6     0     0     0     4
        87.813304      319.308396      182.459397    16     0     0     0     5
       525.689925       10.401182       90.990590    13     0     0     0     2
      2220.029655      387.285022      548.675658     1     0     0     0     4
      2610.080207      359.015728      345.990650     1     0     0     0     6
        51.765798      454.733958      494.542521    19     0     0     0     3
        37.812051      508.019293      550.065561    12     0     0     0     2
       196.000795      231.482384      148.258739    14     0     0     0     6
       140.814286      497.254480      227.741473    10     0     0     0     2
        90.744633      350.486897      281.919792    11     0     0     0     5
       284.531557      291.909406      483.432773    12     0     0     0     1
        36.653301      394.886068      332.964735    13     0     0     0     8
       257.511211      585.308230      169.238476     6     0     0     0     2
       338.543291      312.001820      592.375687    13     0     0     0     4
       303.056411      219.087900      147.766860    16     0     0     0     1
       292.325792      141.570783      511.223348    12     0     0     0     4
      3624.437213      437.947963      480.439861     1     0     0     0     6
       388.660174      319.769590      578.591750    17     0     0     0     1
       682.747660      449.656128      110.711558    35     0     0     0     7
       859.163286      141.536095      533.489599    19     0     0     0     6
        48.916370       57.691003       87.725110    13     0     0     0     2
       708.100786       88.515606      447.251056    16     0     0     0     4
       689.923296      100.475312      304.341581    17     0     0     0     8
        41.975833      423.596671       43.217109     6     0     0     0     6
       262.214109      486.369941      469.246564     9     0     0     0     7
       183.282793      295.673536      498.072185    16     0     0     0     5
      1764.632247      415.388237      352.965827     1     0     0     0     6
       674.853288      154.097901      137.525557    21     0     0     0     3
       234.746070       48.915349      213.119743    12     0     0     0     8
       728.653578      558.529893      145.547593    13     0     0     0     8
       210.198602      422.936192      533.232970    14     0     0     0     8
       747.853288       84.682061       73.257039    26     0     0     0     8
       439.720811      491.510330      575.917513    17     0     0     0     7
      1983.271054       92.821397      237.513690     1     0     0     0     6
       827.773841      323.365334       31.173815    22     0     0     0     1
      1306.509935      378.922412      338.100984     1     0     0     0     6
      2112.104838      192.165635       21.497468     1     0     0     0     1
       510.409583      423.763467      458.884691    16     0     0     0     8
       210.357719      185.359497      254.469457    12     0     0     0     6
       487.793291       12.172440      481.537494    15     0     0     0     6
       205.657805       74.091002      106.058800     9     0     0     0     6
       281.869913      240.759554      386.601639    19     0     0     0     7
        48.967685      312.608987      494.730920    10     0     0     0     5
      3693.380156      453.551118      507.574635     1     0     0     0     2
        25.795801       86.314264      288.005575    10     0     0     0     2
       895.318021      318.246729      399.891011    37     0     0     0     5
       343.353288      581.224217      177.380955    16     0     0     0     7
       212.452059      191.107687      110.122475    15     0     0     0     3
        74.808872       65.379475      251.889313    11     0     0     0     3
        52.299401      427.211016       30.168207     6     0     0     0     8
       274.188820       96.406110       95.878798    18     0     0     0     4
       245.792228      414.873945      308.008086    12     0     0     0     7