ITEM: TIMESTEP
0
ITEM: NUMBER OF ATOMS
        3752
ITEM: BOX BOUNDS pp pp pp
  0.0000000E+00   5000.00000000000     
  0.0000000E+00   600.000000000000     
  0.0000000E+00   600.000000000000     
ITEM: ATOMS x y z nV nH f3 f4 orient
       182.323319      599.334200       18.835103    11     0     0     0     8
       401.007412      167.874913      520.148061     9     0     0     0     8
        41.160799      251.752813      200.747680    10     0     0     0     1
        81.740238      474.859106       62.087649     6     0     0     0     4
       348.543047      442.384127      255.822287     9     0     0     0     1
       270.656799      282.219578      322.228884    15     0     0     0     6
       105.418252      523.494155      441.989328    18     0     0     0     2
        98.459038       84.236955      167.343614    15     0     0     0     2
       233.380571      210.792133      379.590356    14     0     0     0     8
       228.046075      299.167850      344.493060    12     0     0     0     4
       139.308496       99.708753      169.426930    10     0     0     0     1
       422.853288       69.515889       52.400030    14     0     0     0     6
       573.725958      264.610122      326.546814    13     0     0     0     1
       511.765794      597.577097      385.024851    10     0     0     0     2
       734.462781      301.757007      320.530375    10     0     0     0     1
       114.788301      406.559629        8.577056    15     0     0     0     8
       206.806940      411.733062      521.475525    15     0     0     0     4
       143.888081      448.554653      515.944276    11     0     0     0     2
       189.548277      118.115655      119.101219    15     0     0     0     7
       366.015794      183.437966       38.939645    16     0     0     0     8
        68.438051       75.869617      578.670255    19     0     0     0     3
       421.108076      432.668440      353.151617     6     0     0     0     3
       568.058305      448.495736      599.691371    15     0     0     0     7
      1126.505815      546.016033      283.723687    29     0     0     0     5
       290.845811      366.502579       16.339261    10     0     0     0     7
        98.668700      331.594101      299.436608    16     0     0     0     3
      1318.661301      180.422605      327.656632    61     0     0     0     2
       724.585888      406.735449      479.400695    11     0     0     0     8
      1276.987651      309.572454      468.893939    65     0     0     0     5
       925.177127      180.805712      329.994973    16     0     0     0     8
       383.467079      196.252877      513.402840    11     0     0     0     1
       144.251698       20.629716      128.446133    13     0     0     0     8
      3797.049768      138.264489        0.011137     1     0     0     0     8
       119.942651      394.938069      148.068388    16     0     0     0     2
       670.043291       11.817712      234.459035    19     0     0     0     3
        73.849969      108.097804      571.249964    17     0     0     0     6
       455.778306      452.366208       34.824270    17     0     0     0     2
        43.454036      545.609548      345.001765     6     0     0     0     2
        98.373300      175.691809      360.734750    10     0     0     0     6
       109.433275      413.518020      180.254588    14     0     0     0     7
      1552.800518      451.132984      316.239195     1     0     0     0     1
        32.120328       85.201105      585.448536     5     0     0     0     6
      3235.718624      493.379381      228.845904     1     0     0     0     4
       104.398302      449.975522      381.075984    14     0     0     0     4
       120.269749      543.263412      267.412432    16     0     0     0     4
       173.423433      115.836721      482.451166     8     0     0     0     7
       415.322719       16.520676      224.863018    18     0     0     0     1
       446.439381      269.736945      362.190067    12     0     0     0     1
       265.803813      557.478002      559.196128    14     0     0     0     2
      2148.590190      134.337287      143.936935     1     0     0     0     3
       351.192022      299.646658      131.582026     6     0     0     0     4
       551.637120      152.243917      287.080999     9     0     0     0     8
        25.403797       74.236140      514.747318     8     0     0     0     7
       815.098283      347.895870      459.396312    23     0     0     0     1
       556.358293      538.633571      275.354940    17     0     0     0     3
      3567.470125      350.328989      221.950819     1     0     0     0     5
       694.780778      162.544283      250.965311    14     0     0     0     4
       928.486233       76.359977      205.869074    28     0     0     0     1
       621.564013      368.683012      327.232639    14     0     0     0     8
        62.439461      407.725892       81.780873    12     0     0     0     2
       587.432258      494.613901      382.735678    15     0     0     0     8
        64.549043      516.650072      567.618198    11     0     0     0     3
       828.118562      388.875957      101.059477    28     0     0     0     8
       662.283403      579.409929      120.827042     9     0     0     0     8
       169.728303      429.826592      447.949957    14     0     0     0     7
       139.433673      227.369842      438.825509    20     0     0     0     7
       282.838304      339.032631      570.164463    11     0     0     0     8
        99.429378      283.906555      424.656386     9     0     0     0     8
        99.958381      112.986360      342.913672     6     0     0     0     8
       854.707228      332.590181      286.957217    16     0     0     0     3
        19.366136      229.331174      325.765752     6     0     0     0     2
       775.479672      100.905061      152.413793    11     0     0     0     8
      2237.464064      363.648499        7.703943     1     0     0     0     6
       138.905330      209.535284      444.610157     1     0     0     0     3
        54.005375      458.417522       23.843770     8     0     0     0     2
       509.088304      431.206617       12.994199    17     0     0     0     3
       134.122770      267.185139      399.274804    11     0     0     0     1
       551.152203      515.857045      368.671366    13     0     0     0     1
       519.575424      335.795881      206.968790    16     0     0     0     7
        72.908201       60.949585      267.326605     9     0     0     0     8
       292.814287      536.844256      557.935657    12     0     0     0     4
       589.748308       54.403483       93.542786    22     0     0     0     1
        31.606617      409.668354      590.052957    11     0     0     0     7
        67.655322      425.563544       56.621676    15     0     0     0     5
       173.917512      544.683287      579.277223     9     0     0     0     5
       525.004775      114.996375      433.978960    10     0     0     0     7
       161.743841      515.306794      369.020126     6     0     0     0     1
       252.127255      521.778489      401.430662     6     0     0     0     4
      3147.734213      246.943498      388.239216     1     0     0     0     6
      1304.407963      445.879223      474.485849    83     0     0     0     4
       346.654182      255.945704       84.797883    16     0     0     0     4
       520.630815      417.147843       84.319915    18     0     0     0     7
       141.251179      586.850275      306.919239    12     0     0     0     1
       223.765794      151.440477      544.323283     9     0     0     0     1
       553.689002      201.573179      235.548991     8     0     0     0     6
       359.631792      500.483450      278.217118     9     0     0     0     1
       355.780992      321.871685      441.890711    16     0     0     0     5
       109.526303      116.314695      559.015593    13     0     0     0     8
       119.615800       92.810470      329.446009    13     0     0     0     2
       176.510805      489.124431      395.118733    14     0     0     0     8
       662.140825      331.907154      311.811095    28     0     0     0     7
       104.538438       28.148968      252.525323    19     0     0     0     5
       171.582196       93.685750      265.447499    10     0     0     0     5
        86.982797      597.364840      204.413160    14     0     0     0     6
      1683.241585      313.011477       23.211806     1     0     0     0     7
       592.820186      103.383620      557.296900     6     0     0     0     8
        44.785799      260.962472      265.476717    10     0     0     0     4
       452.529848      572.436707      549.298777    13     0     0     0     4
       144.176869      437.984478      358.586055     6     0     0     0     6
       697.412881      109.219266        6.539289    27     0     0     0     2
       286.632254      341.342634       43.335343     9     0     0     0     6
       392.539845        8.160258      572.506302    16     0     0     0     1
       144.583159      204.539244      583.459566    16     0     0     0     1
       335.887800      240.656755       59.620300     8     0     0     0     7
       817.265825      304.944725       56.581968    25     0     0     0     3
       120.884568      282.777091      351.450181     8     0     0     0     6
        84.365870      560.084973      319.823223    13     0     0     0     8
      1034.215616      515.684077       20.987208    44     0     0     0     5
       362.248534      176.979418       64.132823    14     0     0     0     8
       114.565504      384.302562       46.098100     6     0     0     0     6
       379.670332       35.587811      568.882151     6     0     0     0     3
       540.284689      371.819602      391.088885    17     0     0     0     3
       214.895947      189.111612      352.798722     9     0     0     0     5
        71.435358      327.223714      149.072719     9     0     0     0     3
       202.617681      247.856506      454.194837     6     0     0     0     1
      1178.715265      393.846609      422.022494    34     0     0     0     6
       104.519631      352.561359      373.543384    13     0     0     0     2
       296.144304      365.477618       23.748080    11     0     0     0     7
       392.271862      584.998297      514.692230    16     0     0     0     5
       972.507216      283.326877      251.064878    21     0     0     0     3
      2692.110701      292.442425      272.466464     1     0     0     0     8
        40.434123      263.960148      189.165924    10     0     0     0     6
        69.143107      270.833049       13.419496    14     0     0     0     5
       190.258004      266.094399      231.254944    10     0     0     0     3
      1132.701635      368.713346       30.241070    36     0     0     0     5
       785.633317      302.872058      355.432801    15     0     0     0     4
       180.927279      204.298746      433.274260     1     0     0     0     4
       229.566701      353.696173       31.245185    17     0     0     0     4
        52.829492      185.527713      291.721861     6     0     0     0     5
       477.196172      432.971787      452.401070    10     0     0     0     6
       119.208076      139.213147       14.518541    11     0     0     0     3
       772.933571      226.922927      254.420913    20     0     0     0     7
       209.046598      578.720696       21.826076    11     0     0     0     4
        73.348299      497.490170       78.137240     6     0     0     0     7
      1020.976219      269.391061      473.917959    30     0     0     0     2
       424.557454      593.546858      582.177253    18     0     0     0     5
      2550.758851      583.421396      442.661452     1     0     0     0     5
       376.363478      148.106599      319.951851    13     0     0     0     3
       812.133317      384.625587      418.218393    21     0     0     0     7
       632.255855      144.418783      523.023035    20     0     0     0     3
        75.038198      576.873741      438.483727    12     0     0     0     1
       221.856991      559.492487       48.826428    11     0     0     0     6
       427.915363      392.245504      164.526400    21     0     0     0     3
       339.300773      127.513771      490.822247    12     0     0     0     7
       224.250842      593.566109      102.286802    12     0     0     0     5
        44.520799      289.909339      258.072804    11     0     0     0     4
       954.290645      595.407064      563.105916    28     0     0     0     8
       179.727520      566.138615      124.726233     6     0     0     0     3
       559.603849      406.299036      290.053819     9     0     0     0     7
       774.415788      166.608093      423.055643    23     0     0     0     4
      1112.888083      234.998810      359.424846    49     0     0     0     5
       687.665788      420.382568       33.152644    15     0     0     0     4
      3701.157240      327.365251      506.417180     1     0     0     0     1
       249.554221      527.788559      131.654946    14     0     0     0     3
       465.399198      484.541700      268.689459    14     0     0     0     8
       495.832800       40.683291      474.079295    15     0     0     0     5
       173.141359      479.659116      519.213932    10     0     0     0     6
       661.266528      329.794545       76.944857    23     0     0     0     5
      1816.127707      529.307847      207.619359     1     0     0     0     7
       199.530794      466.434156      264.162878    10     0     0     0     4
       412.851651      581.514282       95.805634    10     0     0     0     7
        91.526661      327.766662      167.147702    11     0     0     0     1
       110.433608       71.605436      536.493596    11     0     0     0     3
       509.572922      151.052550      284.675656    13     0     0     0     5
       606.837709      509.235751       65.800646    17     0     0     0     1
       512.601044      549.508925      380.057826    13     0     0     0     3
       302.714639       94.180762      160.558701    18     0     0     0     5
       726.318669      552.065401      419.741266    17     0     0     0     2
       313.664293      358.962122      178.805958    12     0     0     0     4
       155.919801      457.340674      479.331039    12     0     0     0     4
        77.492899       45.756497      492.838448    10     0     0     0     1
       277.309843      295.038060       39.135524    10     0     0     0     5
      3851.403191      172.270137      348.935294     1     0     0     0     5
       358.673296      241.445106      259.680138    16     0     0     0     4
       918.815813      562.538629      525.296579    14     0     0     0     1
        36.190783      597.749651      316.959616    11     0     0     0     1
        80.844622      165.658546      483.173627    17     0     0     0     6
       502.238610      231.930085       23.010387    10     0     0     0     6
       143.728227      346.219900      236.930820    18     0     0     0     6
      1204.955482      569.920302      181.111787    41     0     0     0     2
       911.478288      161.400319      261.049286    30     0     0     0     8
      3331.434879      543.044527      510.671358     1     0     0     0     8
       751.830883       56.622438      471.969650    20     0     0     0     6
       521.572208      487.313456      205.146984    21     0     0     0     7
       442.531817      436.030326       12.459806    12     0     0     0     2
       645.804685       61.865551      552.333212    15     0     0     0     2
       481.717677      385.501669      146.862514    10     0     0     0     1
       812.229368      147.630514      363.501223    23     0     0     0     4
       212.588405      483.086964      405.468555    11     0     0     0     3
       142.120918      190.742173      371.201235    10     0     0     0     5
       351.428548      489.098520      278.101967    10     0     0     0     1
       902.755699      177.139776      555.390510    24     0     0     0     4
       305.493062      410.243558      131.215872    13     0     0     0     5
      1000.490973      464.055889      198.589560    31     0     0     0     4
       435.465439      106.505264      229.180257    10     0     0     0     1
       404.973314      503.341986      186.635138    18     0     0     0     2
      2694.740236      229.120297      410.676842     1     0     0     0     6
       151.254924      357.752117      409.272187    12     0     0     0     7
      1259.844418      486.380525      226.752843    35     0     0     0     2
       772.243021      548.150239      164.044269    14     0     0     0     5
       439.840806      560.904311      192.408684    18     0     0     0     2
        57.415800      111.976367       51.987346    10     0     0     0     3
       432.226261      514.562427      503.965428    11     0     0     0     3
       617.185718      410.215831      463.551793    23     0     0     0     7
       120.005800       27.406497       95.968911    12     0     0     0     5
       398.643297      295.518090      204.707591    11     0     0     0     3
        68.075289      468.437815      116.876551     6     0     0     0     6
       362.820419      490.416698      377.974047    16     0     0     0     4
      1260.556372      169.963673       42.246266    89     0     0     0     7
       137.327505      427.823234      370.105537    15     0     0     0     3
       221.083056       39.879602      372.077414    13     0     0     0     6
       367.348563      441.542556      147.411885    16     0     0     0     2
      1520.564428      524.511970      399.459204   109     0     0     0     5
        39.058301      549.576020       41.980779     9     0     0     0     1
       200.915040      259.255327       83.455168    23     0     0     0     5
        36.880800      293.569453      570.477250    12     0     0     0     1
      1192.087059       19.696044      367.908656    51     0     0     0     5
        92.167463      353.343232      329.079436    20     0     0     0     1
      2207.067348      443.724819       87.674774     1     0     0     0     2
       399.310252       83.407899      194.152806    21     0     0     0     7
        15.823468      402.245768       37.598758     6     0     0     0     1
       513.873408      165.019015      435.249654    15     0     0     0     7
       269.395799      347.170602       22.217623    12     0     0     0     1
       330.152299      543.409111       56.723540    17     0     0     0     1
       409.820787      331.786451       11.837456    12     0     0     0     6
       265.262538      175.138138      477.272392    14     0     0     0     3
       185.030334      527.904829        9.622710    10     0     0     0     3
       268.580082      377.967714      204.503517    13     0     0     0     1
       100.471832      529.659137      437.027847     6     0     0     0     1
       269.221845      565.764644      442.757972    14     0     0     0     1
       154.651757       35.049457       66.625622    14     0     0     0     3
        78.969773      397.912500      188.749698    17     0     0     0     8
       764.586873      375.470008      413.571482    14     0     0     0     5
      2095.291064       95.038512      536.138327     1     0     0     0     7
       678.865800      458.321686      499.471636    10     0     0     0     3
       290.192495      385.520672      318.293074    19     0     0     0     8
       257.343294      504.170947      229.852752     9     0     0     0     8
       935.497627       19.562138      326.644460    30     0     0     0     7
       181.161806       45.313919       66.035832    18     0     0     0     3
      3527.892394      420.225554      166.111338     1     0     0     0     8
       911.006113      353.723130      266.600923    16     0     0     0     6
       885.023271      547.078692       43.509016    16     0     0     0     4
        59.216091       22.054492      556.399879     6     0     0     0     4
       318.109395      598.243616      116.916657     9     0     0     0     2
       220.496720      272.863163       53.813620    12     0     0     0     7
       220.066501       61.462556      192.454612    13     0     0     0     6
       100.177352      175.259978      226.856513    16     0     0     0     8
       447.152260      120.057800      482.755878    28     0     0     0     1
       175.595796      293.045406      338.935989    19     0     0     0     3
       407.506394      478.941088      374.000183     6     0     0     0     2
      2025.276322      360.206289      300.203933     1     0     0     0     1
       901.111648       53.617964      592.442989    25     0     0     0     8
       772.058305      587.942192      492.956283    20     0     0     0     5
        40.852589      570.411703      283.247698    10     0     0     0     1
       642.855846      146.748239      177.544934    17     0     0     0     4
      1039.010974      283.188611      110.834982    31     0     0     0     1
      1143.932752       92.304946      448.671828    47     0     0     0     7
        69.094370      518.318440      258.932875    13     0     0     0     6
       616.675798      327.053211      298.228535    17     0     0     0     3
       247.950807      545.060778      568.400894    17     0     0     0     8
       735.870805       47.465339      459.410711    21     0     0     0     3
      1213.588178       25.206684      391.649948    39     0     0     0     3
       439.591596      152.782228      558.837602    10     0     0     0     8
       371.397641      461.818757      455.315377    12     0     0     0     6
       243.250205      235.445864       97.897780     6     0     0     0     8
       132.420983      521.750260      391.906859    11     0     0     0     4
       293.652404      531.204897      518.749261    15     0     0     0     4
      1657.102736      430.176158      241.274451     1     0     0     0     4
       134.660799      181.728281      144.263936    14     0     0     0     2
       268.691054      352.410925      503.426697    13     0     0     0     7
       412.140739      383.222256      576.404418     9     0     0     0     3
        81.031468      366.732577      516.736729    10     0     0     0     1
       221.175559       21.822731      539.056072     9     0     0     0     3
       254.155070      100.594710      289.990831    16     0     0     0     5
       344.487828       65.432366      137.866125    11     0     0     0     6
       339.898302      580.576436      430.644209    14     0     0     0     5
       103.655110      499.146733      500.577295     6     0     0     0     6
       371.558145      109.341965      152.573831    22     0     0     0     3
      4755.115370      105.682004      364.330435     1     0     0     0     5
        51.451744      189.770964      183.560343     6     0     0     0     4
       283.113298      388.486062      229.137240    15     0     0     0     4
       140.538301      165.502876      192.507587    10     0     0     0     1
      1123.650835      161.243733      369.585161    35     0     0     0     2
      3334.657170      517.687438        3.059976     1     0     0     0     5
       208.025301      182.574877      111.684709    12     0     0     0     4
        94.813506      314.137660      480.383870     6     0     0     0     7
        52.081548      299.013051      425.149518     9     0     0     0     2
       151.975991      355.473260      540.664132    14     0     0     0     3
      2008.262255      250.975150      136.273890     1     0     0     0     2
       384.257418      266.625661      274.039463    16     0     0     0     1
        91.434293       17.601086      469.003716    14     0     0     0     7
       340.448711      226.503642      368.761714    15     0     0     0     3
      1135.864042      579.128600      459.484723    43     0     0     0     4
       452.274797      242.371521      153.813992    14     0     0     0     3
       130.256966      348.274046       61.330637    10     0     0     0     8
      3420.400019      538.672524      252.790363     1     0     0     0     3
       466.395799      179.552629      162.747115    16     0     0     0     6
      1978.435316      268.543884      240.442151     1     0     0     0     1
       372.661451      430.645034      270.472674    12     0     0     0     7
       145.669268       55.351097      410.822115     8     0     0     0     1
        83.100713      309.601725      274.292904    15     0     0     0     6
       157.199058      309.006219      121.018154    13     0     0     0     4
       962.783281      549.212002      463.924283    33     0     0     0     2
      4459.678033      489.989824      462.016085     1     0     0     0     1
      1289.695659      577.167334      360.892619    68     0     0     0     3
        66.202876      147.614646      550.075648    13     0     0     0     8
      2458.805978      170.336958      162.242251     1     0     0     0     1
       405.542203      574.977041       86.295276    14     0     0     0     8
       183.745473      584.686644      153.090447     9     0     0     0     2
       336.445437      273.755827        5.215769     9     0     0     0     7
       288.730890      575.996691      344.627961    10     0     0     0     8
        87.813304      319.308396      182.459397    16     0     0     0     5
       525.689925       10.401182       90.990590    13     0     0     0     2
      3114.935413      576.545226      322.531521     1     0     0     0     3
       289.210802       71.666777      321.274597    22     0     0     0     7
        51.765798      454.733958      494.542521    19     0     0     0     3
        58.508411      461.194816      175.596297     6     0     0     0     4
        66.908216      394.393190      450.720539    11     0     0     0     5
       140.814286      497.254480      227.741473    10     0     0     0     2
        46.849599      546.313638      404.511716     8     0     0     0     7
       284.531557      291.909406      483.432773    12     0     0     0     1
      1917.007908      538.418226      237.344663     1     0     0     0     4
       257.511211      585.308230      169.238476     6     0     0     0     2
       338.543291      312.001820      592.375687    13     0     0     0     4
       303.056411      219.087900      147.766860    16     0     0     0     1
       292.325792      141.570783      511.223348    12     0     0     0     4
       171.302853        0.830342      483.476603    16     0     0     0     7
       388.660174      319.769590      578.591750    17     0     0     0     1
       682.747660      449.656128      110.711558    35     0     0     0     7
       859.163286      141.536095      533.489599    19     0     0     0     6
        48.916370       57.691003       87.725110    13     0     0     0     2
       708.100786       88.515606      447.251056    16     0     0     0     4
       106.236242      445.377021      525.980980     9     0     0     0     7
       345.507006      418.528945      318.678990    15     0     0     0     3
       262.214109      486.369941      469.246564     9     0     0     0     7
       183.282793      295.673536      498.072185    16     0     0     0     5
       163.149511      179.464072      487.023501    13     0     0     0     1
       674.853288      154.097901      137.525557    21     0     0     0     3
       234.746070       48.915349      213.119743    12     0     0     0     8
       728.653578      558.529893      145.547593    13     0     0     0     8
       210.198602      422.936192      533.232970    14     0     0     0     8
       747.853288       84.682061       73.257039    26     0     0     0     8
       439.720811      491.510330      575.917513    17     0     0     0     7
       145.325334      545.955568      388.394777    10     0     0     0     5
       827.773841      323.365334       31.173815    22     0     0     0     1
      1227.902745      594.227572      349.107988    41     0     0     0     1
        21.551986       81.011885      552.161190    12     0     0     0     5
       125.946007      441.229486      594.409985    14     0     0     0     1
       210.357719      185.359497      254.469457    12     0     0     0     6
       487.793291       12.172440      481.537494    15     0     0     0     6
       205.657805       74.091002      106.058800     9     0     0     0     6
       281.869913      240.759554      386.601639    19     0     0     0     7
       131.510556      289.560954      457.192545    13     0     0     0     5
      1132.971737      241.499016      191.739271     1     0     0     0     6
        25.795801       86.314264      288.005575    10     0     0     0     2
       895.318021      318.246729      399.891011    37     0     0     0     5
       343.353288      581.224217      177.380955    16     0     0     0     7
       212.452059      191.107687      110.122475    15     0     0     0     3
        74.808872       65.379475      251.889313    11     0     0     0     3
      2227.252491       16.371130      271.104304     1     0     0     0     1
       274.188820       96.406110       95.878798    18     0     0     0     4
       245.792228      414.873945      308.008086    12     0     0     0     7