ITEM: TIMESTEP
0
ITEM: NUMBER OF ATOMS
        3284
ITEM: BOX BOUNDS pp pp pp
  0.0000000E+00   5000.00000000000     
  0.0000000E+00   600.000000000000     
  0.0000000E+00   600.000000000000     
ITEM: ATOMS x y z nV nH f3 f4 orient
       182.323319      599.334200       18.835103    11     0     0     0     8
       401.007412      167.874913      520.148061     9     0     0     0     8
      3711.491930       64.001001      595.653185     1     0     0     0     5
        79.276257       18.979907      143.469708    21     0     0     0     3
       348.543047      442.384127      255.822287     9     0     0     0     1
       270.656799      282.219578      322.228884    15     0     0     0     6
       181.668304       71.374251      306.808431    13     0     0     0     8
        98.459038       84.236955      167.343614    15     0     0     0     2
       233.380571      210.792133      379.590356    14     0     0     0     8
       228.046075      299.167850      344.493060    12     0     0     0     4
       139.138363      100.043195      169.252725    11     0     0     0     2
       422.853288       69.515889       52.400030    14     0     0     0     6
       573.725958      264.610122      326.546814    13     0     0     0     1
       684.501212      499.870644      298.931896    21     0     0     0     6
       734.462781      301.757007      320.530375    10     0     0     0     1
       125.863452      440.845505      361.903443    18     0     0     0     1
       675.436093      192.332154      323.842657    11     0     0     0     2
       143.888081      448.554653      515.944276    11     0     0     0     2
       668.671473       85.665541      289.003497    12     0     0     0     2
       289.381812       24.790035      103.388636    13     0     0     0     5
       511.803300      116.700728       32.283543    13     0     0     0     5
      1301.389243      283.443602      461.170873    74     0     0     0     5
       568.058305      448.495736      599.691371    15     0     0     0     7
      4202.776832      591.073043      386.953163     1     0     0     0     4
       290.845811      366.502579       16.339261    10     0     0     0     7
        98.668700      331.594101      299.436608    16     0     0     0     3
       395.754999      100.850897      592.725506    15     0     0     0     8
       172.988003      583.261882       55.737820    25     0     0     0     6
       164.478667      241.053427      463.026971    14     0     0     0     5
       925.177127      180.805712      329.994973    16     0     0     0     8
       383.467079      196.252877      513.402840    11     0     0     0     1
      3242.709213      280.308905      415.706267     1     0     0     0     7
        78.819291       30.906932       37.815377    12     0     0     0     8
       119.942651      394.938069      148.068388    16     0     0     0     2
       670.043291       11.817712      234.459035    19     0     0     0     3
       427.601798       77.228768       58.175091    19     0     0     0     7
       455.778306      452.366208       34.824270    17     0     0     0     2
        39.293629      356.754509      461.778039    15     0     0     0     4
        98.373300      175.691809      360.734750    10     0     0     0     6
       109.433275      413.518020      180.254588    14     0     0     0     7
        77.190826      549.153814       32.377900    17     0     0     0     6
        61.658477      481.464917       97.045961    13     0     0     0     8
       257.818352      460.517951      264.826243    12     0     0     0     3
      1154.973688      582.701527      244.283805    40     0     0     0     1
       548.848465      135.696650       55.990245    12     0     0     0     7
       603.458330      383.361981      110.149760    17     0     0     0     2
       415.322719       16.520676      224.863018    18     0     0     0     1
       446.439381      269.736945      362.190067    12     0     0     0     1
       265.803813      557.478002      559.196128    14     0     0     0     2
       201.100166      259.175935       83.547389    24     0     0     0     4
       112.775860      384.775997      566.361121    14     0     0     0     4
       551.637120      152.243917      287.080999     9     0     0     0     8
       236.724801      576.190336      322.219362    16     0     0     0     7
       815.098283      347.895870      459.396312    23     0     0     0     1
       556.358293      538.633571      275.354940    17     0     0     0     3
        78.817214      342.524171        8.518425    10     0     0     0     5
       694.780778      162.544283      250.965311    14     0     0     0     4
       928.486233       76.359977      205.869074    28     0     0     0     1
       621.564013      368.683012      327.232639    14     0     0     0     8
        62.439461      407.725892       81.780873    12     0     0     0     2
       587.432258      494.613901      382.735678    15     0     0     0     8
      3367.804747      394.326490      168.367735     1     0     0     0     1
       828.118562      388.875957      101.059477    28     0     0     0     8
        92.896213      304.870293       92.026441    10     0     0     0     8
       169.728303      429.826592      447.949957    14     0     0     0     7
       344.735680      249.780866      127.980440    14     0     0     0     7
        27.438161      234.948988      574.205321    11     0     0     0     5
        50.779212      476.017298      195.936781    10     0     0     0     4
       392.124071        8.294779      572.214740    18     0     0     0     1
       854.707228      332.590181      286.957217    16     0     0     0     3
        82.737842      397.250489        0.308284    18     0     0     0     3
       775.479672      100.905061      152.413793    11     0     0     0     8
      3219.018203      305.422685      289.187278     1     0     0     0     4
       285.096597      407.953846      580.149973    12     0     0     0     8
       188.103942      186.032644      366.081298    11     0     0     0     8
       509.088304      431.206617       12.994199    17     0     0     0     3
       134.122770      267.185139      399.274804    11     0     0     0     1
       551.152203      515.857045      368.671366    13     0     0     0     1
      2172.176647      404.895791      519.623583     1     0     0     0     8
        72.908201       60.949585      267.326605     9     0     0     0     8
       292.814287      536.844256      557.935657    12     0     0     0     4
       589.748308       54.403483       93.542786    22     0     0     0     1
        31.606617      409.668354      590.052957    11     0     0     0     7
       393.938310      219.278817      568.235614    15     0     0     0     7
       628.719102      111.564799      412.412134    14     0     0     0     8
       525.004775      114.996375      433.978960    10     0     0     0     7
       774.616740      327.452553       79.636840    23     0     0     0     3
       484.245835      133.869153      455.278254    12     0     0     0     8
       187.176624      151.288164      179.653348    14     0     0     0     5
      2529.293298      455.954464      552.515382     1     0     0     0     5
       117.796051      586.222328      407.830031    16     0     0     0     7
       520.630815      417.147843       84.319915    18     0     0     0     7
       511.587093      130.479243       20.269225    14     0     0     0     8
       223.765794      151.440477      544.323283     9     0     0     0     1
       122.024852      220.591308      533.515581    15     0     0     0     2
       359.631792      500.483450      278.217118     9     0     0     0     1
       160.217740      352.740644      337.454207    14     0     0     0     8
        79.079430      489.525435      475.123659    14     0     0     0     3
      2821.966182      391.979594      241.218657     1     0     0     0     6
      1185.827370      137.856477       74.920674    48     0     0     0     3
       662.140825      331.907154      311.811095    28     0     0     0     7
       104.538438       28.148968      252.525323    19     0     0     0     5
       171.582196       93.685750      265.447499    10     0     0     0     5
        86.982797      597.364840      204.413160    14     0     0     0     6
        99.640056      105.801734      428.807224    22     0     0     0     7
       358.749661      241.487035      259.870378    17     0     0     0     4
       675.298840      131.005066        7.942249    20     0     0     0     2
       452.529848      572.436707      549.298777    13     0     0     0     4
        47.601256      331.954996      297.682794    14     0     0     0     4
       223.487549        2.079163      182.612462    15     0     0     0     7
       249.573142      527.941369      131.927697    15     0     0     0     8
       513.054072      508.618527       91.246857    14     0     0     0     2
       144.583159      204.539244      583.459566    16     0     0     0     1
       436.471943      224.177038      171.240834    16     0     0     0     7
       817.265825      304.944725       56.581968    25     0     0     0     3
       402.455649      215.712904      448.879482    14     0     0     0     5
        84.365870      560.084973      319.823223    13     0     0     0     8
      2876.876012      288.759859      473.981594     1     0     0     0     5
       118.089313       20.124772      371.233314    13     0     0     0     8
       243.581484      438.328258      272.992403    14     0     0     0     2
        54.851091      268.635402       53.209263    10     0     0     0     7
       540.284689      371.819602      391.088885    17     0     0     0     3
       214.895947      189.111612      352.798722     9     0     0     0     5
        71.435358      327.223714      149.072719     9     0     0     0     3
       130.772136       78.722732      477.008692    14     0     0     0     5
      1178.715265      393.846609      422.022494    34     0     0     0     6
       104.519631      352.561359      373.543384    13     0     0     0     2
       282.948277      181.784638      167.174893    18     0     0     0     4
       176.556344      406.521973      243.982635    15     0     0     0     5
       972.507216      283.326877      251.064878    21     0     0     0     3
        57.760301        5.537979      238.802928    21     0     0     0     3
        40.434123      263.960148      189.165924    10     0     0     0     6
       139.603006      563.995190      170.407036     9     0     0     0     7
       190.258004      266.094399      231.254944    10     0     0     0     3
      1132.701635      368.713346       30.241070    36     0     0     0     5
       785.633317      302.872058      355.432801    15     0     0     0     4
       786.233171      228.350617       60.166912    20     0     0     0     5
       229.566701      353.696173       31.245185    17     0     0     0     4
       301.145573      458.442310       80.249754    20     0     0     0     3
       477.196172      432.971787      452.401070    10     0     0     0     6
       119.208076      139.213147       14.518541    11     0     0     0     3
       772.933571      226.922927      254.420913    20     0     0     0     7
        85.076829      278.648876      179.928413    20     0     0     0     1
       192.080948      186.962515       41.746415    20     0     0     0     3
      1020.976219      269.391061      473.917959    30     0     0     0     2
       442.011504      599.364574      326.019544    14     0     0     0     1
        52.565300      292.832724       46.674572    14     0     0     0     1
       376.363478      148.106599      319.951851    13     0     0     0     3
       812.133317      384.625587      418.218393    21     0     0     0     7
       632.255855      144.418783      523.023035    20     0     0     0     3
        80.809023      235.993714      135.452526    13     0     0     0     7
      1192.107704       19.612910      367.820245    52     0     0     0     6
       427.915363      392.245504      164.526400    21     0     0     0     3
       339.300773      127.513771      490.822247    12     0     0     0     7
       224.250842      593.566109      102.286802    12     0     0     0     5
       980.746156      481.535727      333.567780    34     0     0     0     5
       954.290645      595.407064      563.105916    28     0     0     0     8
       478.886604      105.964589      470.332788    14     0     0     0     4
       559.603849      406.299036      290.053819     9     0     0     0     7
       774.415788      166.608093      423.055643    23     0     0     0     4
      1112.888083      234.998810      359.424846    49     0     0     0     5
       687.665788      420.382568       33.152644    15     0     0     0     4
       560.212689       72.024833      171.463327    12     0     0     0     5
      2476.182245      390.148854      298.447694     1     0     0     0     6
       381.019809       53.517741      399.739653    12     0     0     0     6
       495.832800       40.683291      474.079295    15     0     0     0     5
       605.863403      155.031122      142.066152    12     0     0     0     6
       661.266528      329.794545       76.944857    23     0     0     0     5
       289.693398      359.902776      402.713008    13     0     0     0     3
       199.530794      466.434156      264.162878    10     0     0     0     4
       412.851651      581.514282       95.805634    10     0     0     0     7
        91.526661      327.766662      167.147702    11     0     0     0     1
       110.433608       71.605436      536.493596    11     0     0     0     3
       509.572922      151.052550      284.675656    13     0     0     0     5
       606.837709      509.235751       65.800646    17     0     0     0     1
       512.601044      549.508925      380.057826    13     0     0     0     3
       302.714639       94.180762      160.558701    18     0     0     0     5
       726.318669      552.065401      419.741266    17     0     0     0     2
       103.878997      585.001388      521.557796    11     0     0     0     1
       919.505558      505.653498      284.076046    21     0     0     0     7
       680.828874       23.877814      258.721045    24     0     0     0     5
       277.309843      295.038060       39.135524    10     0     0     0     5
       172.261508      442.284169      584.696955    19     0     0     0     8
       392.043002      585.191679      514.774633    17     0     0     0     3
       918.815813      562.538629      525.296579    14     0     0     0     1
        36.190783      597.749651      316.959616    11     0     0     0     1
      4037.108318       29.518389      235.712750     1     0     0     0     2
       502.238610      231.930085       23.010387    10     0     0     0     6
       143.728227      346.219900      236.930820    18     0     0     0     6
      1204.955482      569.920302      181.111787    41     0     0     0     2
       911.478288      161.400319      261.049286    30     0     0     0     8
       201.824202      498.275825      509.176333    10     0     0     0     7
       751.830883       56.622438      471.969650    20     0     0     0     6
       521.572208      487.313456      205.146984    21     0     0     0     7
       442.531817      436.030326       12.459806    12     0     0     0     2
       645.804685       61.865551      552.333212    15     0     0     0     2
       481.717677      385.501669      146.862514    10     0     0     0     1
       812.229368      147.630514      363.501223    23     0     0     0     4
       212.588405      483.086964      405.468555    11     0     0     0     3
      3474.629728       52.492279      106.730529     1     0     0     0     2
       531.043291      209.335251      218.753162    15     0     0     0     7
       902.755699      177.139776      555.390510    24     0     0     0     4
       263.278165       65.985743      213.634120    13     0     0     0     1
      1000.490973      464.055889      198.589560    31     0     0     0     4
       155.139802      195.261129      346.043827     9     0     0     0     1
       278.158693      204.260396      520.954275    16     0     0     0     2
       149.423860      414.902318      111.914228    13     0     0     0     5
       151.254924      357.752117      409.272187    12     0     0     0     7
       199.113455      106.264937      553.230535    21     0     0     0     8
       772.243021      548.150239      164.044269    14     0     0     0     5
       439.840806      560.904311      192.408684    18     0     0     0     2
      4287.209469      104.342355       32.444408     1     0     0     0     2
       432.226261      514.562427      503.965428    11     0     0     0     3
       617.185718      410.215831      463.551793    23     0     0     0     7
      4195.147043       42.397746      422.237821     1     0     0     0     8
       607.338163      433.965354      589.041114    22     0     0     0     6
       234.360821      318.631312      304.294700    15     0     0     0     1
       362.820419      490.416698      377.974047    16     0     0     0     4
       557.664631      456.607824       34.852577    15     0     0     0     1
       131.744104      553.049675      455.990721    11     0     0     0     6
      2544.750151      278.724368      363.182536     1     0     0     0     1
       367.348563      441.542556      147.411885    16     0     0     0     2
       265.331136       19.345825      107.433656    12     0     0     0     6
        39.058301      549.576020       41.980779     9     0     0     0     1
       356.072166       10.210842      134.781843    14     0     0     0     7
        36.880800      293.569453      570.477250    12     0     0     0     1
        78.808008      398.146791      188.754975    18     0     0     0     5
       228.618277      334.108256      166.925054    11     0     0     0     4
        32.339607      491.136823      525.092492    10     0     0     0     2
       134.476441      140.052597      363.156599     9     0     0     0     2
       209.308243       50.243687      176.818694    11     0     0     0     6
       513.873408      165.019015      435.249654    15     0     0     0     7
        75.180400      205.238202      366.042299    16     0     0     0     1
       330.152299      543.409111       56.723540    17     0     0     0     1
       409.820787      331.786451       11.837456    12     0     0     0     6
       265.262538      175.138138      477.272392    14     0     0     0     3
       150.584288      236.679853      185.833528    16     0     0     0     7
       268.580082      377.967714      204.503517    13     0     0     0     1
        60.886546      255.893145      115.987289    14     0     0     0     2
       269.221845      565.764644      442.757972    14     0     0     0     1
       154.651757       35.049457       66.625622    14     0     0     0     3
      2961.877609      260.496806      265.831917     1     0     0     0     1
       764.586873      375.470008      413.571482    14     0     0     0     5
      2825.760689      231.601903      224.796186     1     0     0     0     8
       678.865800      458.321686      499.471636    10     0     0     0     3
       290.192495      385.520672      318.293074    19     0     0     0     8
       257.343294      504.170947      229.852752     9     0     0     0     8
        55.982591      430.853453      223.714053    16     0     0     0     2
       261.463727      591.945901      429.948955    18     0     0     0     8
       141.734298      444.533097      534.920756    10     0     0     0     3
       911.006113      353.723130      266.600923    16     0     0     0     6
       885.023271      547.078692       43.509016    16     0     0     0     4
       223.875371      479.235648      515.440647    12     0     0     0     4
       318.109395      598.243616      116.916657     9     0     0     0     2
       220.496720      272.863163       53.813620    12     0     0     0     7
       220.066501       61.462556      192.454612    13     0     0     0     6
       100.177352      175.259978      226.856513    16     0     0     0     8
       447.152260      120.057800      482.755878    28     0     0     0     1
       599.350730      395.135501      566.805756    17     0     0     0     6
       407.506394      478.941088      374.000183     6     0     0     0     2
      2989.779221      590.537076      212.720639     1     0     0     0     5
       901.111648       53.617964      592.442989    25     0     0     0     8
       102.760307      384.075191      308.511863    16     0     0     0     2
        40.852589      570.411703      283.247698    10     0     0     0     1
       186.179928      410.234957      572.655764    15     0     0     0     7
      1039.010974      283.188611      110.834982    31     0     0     0     1
      2642.210903      484.670400      145.512431     1     0     0     0     6
        69.094370      518.318440      258.932875    13     0     0     0     6
       616.675798      327.053211      298.228535    17     0     0     0     3
       247.950807      545.060778      568.400894    17     0     0     0     8
       735.870805       47.465339      459.410711    21     0     0     0     3
      1213.588178       25.206684      391.649948    39     0     0     0     3
       439.591596      152.782228      558.837602    10     0     0     0     8
       371.397641      461.818757      455.315377    12     0     0     0     6
       100.404742      522.505158      586.651613    11     0     0     0     8
       395.580797       38.549053      259.969949    16     0     0     0     1
       293.652404      531.204897      518.749261    15     0     0     0     4
       522.143327      518.286100      414.080741    12     0     0     0     2
       154.783876       80.806265      275.567518    14     0     0     0     6
       268.691054      352.410925      503.426697    13     0     0     0     7
       412.140739      383.222256      576.404418     9     0     0     0     3
        80.863649      366.590756      516.440994    11     0     0     0     3
        45.088523      472.294324      503.291604    14     0     0     0     4
       292.735443      575.939050      218.474609    10     0     0     0     1
       344.487828       65.432366      137.866125    11     0     0     0     6
       339.898302      580.576436      430.644209    14     0     0     0     5
       985.975698      164.199718      168.430196    18     0     0     0     3
       371.558145      109.341965      152.573831    22     0     0     0     3
       194.214842      163.266845      449.974855    11     0     0     0     7
       483.002008      250.276671      200.639397    15     0     0     0     5
       283.113298      388.486062      229.137240    15     0     0     0     4
       353.945787      431.838183      251.367459    16     0     0     0     2
      1123.650835      161.243733      369.585161    35     0     0     0     2
       168.948635      261.844725      595.498964    13     0     0     0     8
        79.175494      189.022386      314.159758    13     0     0     0     2
       577.140825      182.856624      164.755958    10     0     0     0     3
        52.081548      299.013051      425.149518     9     0     0     0     2
       151.975991      355.473260      540.664132    14     0     0     0     3
       221.979749      559.227699       48.935779    12     0     0     0     8
       794.992042       33.418064      341.153836    19     0     0     0     8
        91.434293       17.601086      469.003716    14     0     0     0     7
       340.448711      226.503642      368.761714    15     0     0     0     3
      1135.864042      579.128600      459.484723    43     0     0     0     4
       452.274797      242.371521      153.813992    14     0     0     0     3
       130.256966      348.274046       61.330637    10     0     0     0     8
      2587.629809      444.657683      143.788178     1     0     0     0     5
       466.395799      179.552629      162.747115    16     0     0     0     6
       388.126115       95.213633      295.136205    13     0     0     0     2
       372.661451      430.645034      270.472674    12     0     0     0     7
       770.641444      392.821773      371.727560    13     0     0     0     5
        83.100713      309.601725      274.292904    15     0     0     0     6
       157.199058      309.006219      121.018154    13     0     0     0     4
       962.783281      549.212002      463.924283    33     0     0     0     2
        35.496125      553.351740      393.848404    15     0     0     0     1
      1289.695659      577.167334      360.892619    68     0     0     0     3
       128.567540      518.707250      359.892161    14     0     0     0     2
       652.310808      348.404786      397.527465    12     0     0     0     2
       405.542203      574.977041       86.295276    14     0     0     0     8
       183.745473      584.686644      153.090447     9     0     0     0     2
       813.865800       97.518319      561.754054    14     0     0     0     7
       288.730890      575.996691      344.627961    10     0     0     0     8
        87.813304      319.308396      182.459397    16     0     0     0     5
       525.689925       10.401182       90.990590    13     0     0     0     2
       278.401709      330.963167       80.225501    16     0     0     0     4
      3565.313234      314.149051      480.627961     1     0     0     0     7
        51.765798      454.733958      494.542521    19     0     0     0     3
       445.155172      244.536619      435.631359    12     0     0     0     4
        66.908216      394.393190      450.720539    11     0     0     0     5
       140.814286      497.254480      227.741473    10     0     0     0     2
       625.580944      228.706632       30.564893    15     0     0     0     7
       284.531557      291.909406      483.432773    12     0     0     0     1
        43.594185      151.830761      476.650928    16     0     0     0     5
      3072.851304      193.557703      192.534860     1     0     0     0     6
       338.543291      312.001820      592.375687    13     0     0     0     4
       303.056411      219.087900      147.766860    16     0     0     0     1
       292.551816      141.564653      511.523297    13     0     0     0     7
       171.302853        0.830342      483.476603    16     0     0     0     7
       388.660174      319.769590      578.591750    17     0     0     0     1
       682.747660      449.656128      110.711558    35     0     0     0     7
       859.163286      141.536095      533.489599    19     0     0     0     6
        48.826702       57.486741       87.430903    15     0     0     0     8
       708.100786       88.515606      447.251056    16     0     0     0     4
       391.604981      209.560422      221.363446    14     0     0     0     8
       335.832178       74.337104        4.937840    22     0     0     0     7
       262.214109      486.369941      469.246564     9     0     0     0     7
       183.282793      295.673536      498.072185    16     0     0     0     5
      1569.810180      498.731648      318.695165   118     0     0     0     5
       798.702951      268.918209      493.340847    19     0     0     0     2
       234.746070       48.915349      213.119743    12     0     0     0     8
       728.653578      558.529893      145.547593    13     0     0     0     8
       210.198602      422.936192      533.232970    14     0     0     0     8
       747.853288       84.682061       73.257039    26     0     0     0     8
       439.720811      491.510330      575.917513    17     0     0     0     7
      4539.286051      488.091840       67.425745     1     0     0     0     4
       827.773841      323.365334       31.173815    22     0     0     0     1
      1227.902745      594.227572      349.107988    41     0     0     0     1
        21.551986       81.011885      552.161190    12     0     0     0     5
       131.688648       78.161943      455.910508    11     0     0     0     2
       613.724157       98.420160      399.878978    17     0     0     0     8
       487.793291       12.172440      481.537494    15     0     0     0     6
       205.657805       74.091002      106.058800     9     0     0     0     6
       248.174863      363.102270      558.980492     6     0     0     0     3
       140.190752      355.442963      510.084308    16     0     0     0     7
        93.472264      244.621770      271.511270    19     0     0     0     3
        25.795801       86.314264      288.005575    10     0     0     0     2
       895.318021      318.246729      399.891011    37     0     0     0     5
       493.887528        6.309393      236.533353    25     0     0     0     8
       212.452059      191.107687      110.122475    15     0     0     0     3
        74.808872       65.379475      251.889313    11     0     0     0     3
       438.521807       71.474656      166.374115    19     0     0     0     5
      4356.294516      228.395780        8.391267     1     0     0     0     3
       109.792793      116.389260      558.846082    14     0     0     0     4