ITEM: TIMESTEP
0
ITEM: NUMBER OF ATOMS
         573
ITEM: BOX BOUNDS pp pp pp
  0.0000000E+00   200.000000000000     
  0.0000000E+00   200.000000000000     
  0.0000000E+00   5000.00000000000     
ITEM: ATOMS x y z f1 f2 f3 f4 orient radius rate_mig rate_rot rate_emit
       140.998689       86.963348      101.502835     7     0     0     0     4   2.980 0.709E-16 0.142E-15 0.189E-02
       191.705677       29.566133     1360.633968     1     0     0     0     8   1.560 0.709E+02 0.142E+03 0.000E+00
        18.077024       95.755857      327.978975    17     0     0     0     4   4.010 0.709E-46 0.142E-45 0.116E-08
        67.393411       33.853803     1395.290556     1     0     0     0     7   1.560 0.709E+02 0.142E+03 0.000E+00
       103.956084      187.425164     1221.126395     1     0     0     0     7   1.560 0.709E+02 0.142E+03 0.000E+00
       158.981277      166.066814     1138.379912     1     0     0     0     2   1.560 0.709E+02 0.142E+03 0.000E+00
        53.686581       88.143623      695.932070    19     0     0     0     2   4.160 0.709E-52 0.142E-51 0.553E-09
       197.666948       80.736528      489.120152    16     0     0     0     5   3.930 0.709E-43 0.142E-42 0.175E-08
        44.320441       51.839916      773.015850    24     0     0     0     3   4.500 0.709E-67 0.142E-66 0.130E-09
       149.233474      171.371095      117.226682    22     0     0     0     8   4.370 0.709E-61 0.142E-60 0.219E-09
       123.799841       28.928641      881.675218     1     0     0     0     8   1.560 0.709E+02 0.142E+03 0.000E+00
       191.645150      195.307816      230.540179    16     0     0     0     1   3.930 0.709E-43 0.142E-42 0.175E-08
       156.951282      111.389702      216.727265    19     0     0     0     7   4.160 0.709E-52 0.142E-51 0.553E-09
       185.426611       31.295317      486.032669    18     0     0     0     2   4.080 0.709E-49 0.142E-48 0.788E-09
       116.105942        4.551717      458.572817     9     0     0     0     8   3.240 0.709E-22 0.142E-21 0.157E-06
       109.543940       31.429880     1239.271894     1     0     0     0     7   1.560 0.709E+02 0.142E+03 0.000E+00
         6.634799       20.574716      319.401105    14     0     0     0     2   3.760 0.709E-37 0.142E-36 0.453E-08
        98.237489        4.501858      325.001990     8     0     0     0     6   3.120 0.709E-19 0.142E-18 0.128E-03
       125.449975       82.270137     1278.137180     1     0     0     0     7   1.560 0.709E+02 0.142E+03 0.000E+00
        28.682362      100.261744       39.360714    18     0     0     0     8   4.080 0.709E-49 0.142E-48 0.788E-09
       135.756763       98.162264      110.994552     9     0     0     0     1   3.240 0.709E-22 0.142E-21 0.157E-06
        19.254229       79.038506      189.797689    18     0     0     0     3   4.080 0.709E-49 0.142E-48 0.788E-09
       163.807706        1.187138      411.445303     8     0     0     0     1   3.120 0.709E-19 0.142E-18 0.128E-03
       120.987692       93.228463      419.160634    12     0     0     0     6   3.570 0.709E-31 0.142E-30 0.146E-07
       183.010599      171.687441     1325.822603     1     0     0     0     7   1.560 0.709E+02 0.142E+03 0.000E+00
        64.169159       44.376127       27.088228    12     0     0     0     1   3.570 0.709E-31 0.142E-30 0.146E-07
        91.968807       39.528331     1477.685488     1     0     0     0     4   1.560 0.709E+02 0.142E+03 0.000E+00
        98.061691      142.047210       23.025201     7     0     0     0     1   2.980 0.709E-16 0.142E-15 0.189E-02
        33.114722      187.292518      929.331512    21     0     0     0     5   4.300 0.709E-58 0.142E-57 0.292E-09
        13.844866       53.071363       10.988686     8     0     0     0     2   3.120 0.709E-19 0.142E-18 0.128E-03
        73.124382       75.449251     1183.143258     1     0     0     0     6   1.560 0.709E+02 0.142E+03 0.000E+00
       141.897536       63.343014      565.356000    13     0     0     0     8   3.660 0.709E-34 0.142E-33 0.784E-08
        32.192202      118.320390      682.922112    13     0     0     0     5   3.660 0.709E-34 0.142E-33 0.784E-08
       120.531350       69.535966      495.664905     9     0     0     0     2   3.240 0.709E-22 0.142E-21 0.157E-06
        40.191261      182.613133     1090.591947     1     0     0     0     8   1.560 0.709E+02 0.142E+03 0.000E+00
       192.165730      135.997317      620.823106    22     0     0     0     7   4.370 0.709E-61 0.142E-60 0.219E-09
        24.010178       12.065779       94.375933    16     0     0     0     4   3.930 0.709E-43 0.142E-42 0.175E-08
       171.809785       68.397230     1628.714911     1     0     0     0     3   1.560 0.709E+02 0.142E+03 0.000E+00
       125.251883       48.286411      660.119129    27     0     0     0     1   4.680 0.709E-76 0.142E-75 0.655E-10
       169.600259      190.786053       58.845924     9     0     0     0     4   3.240 0.709E-22 0.142E-21 0.157E-06
       101.428433      186.332695      220.804214    13     0     0     0     8   3.660 0.709E-34 0.142E-33 0.784E-08
        85.287235      153.818088     1431.364496     1     0     0     0     5   1.560 0.709E+02 0.142E+03 0.000E+00
       153.394634      110.882309      235.431680     9     0     0     0     7   3.240 0.709E-22 0.142E-21 0.157E-06
       154.114390      184.525554       75.340852    13     0     0     0     8   3.660 0.709E-34 0.142E-33 0.784E-08
        83.069466       91.154192      385.800169    10     0     0     0     3   3.360 0.709E-25 0.142E-24 0.633E-07
        84.776346       17.674247      857.278091    24     0     0     0     5   4.500 0.709E-67 0.142E-66 0.130E-09
       120.053956       52.522876      703.534843    22     0     0     0     8   4.370 0.709E-61 0.142E-60 0.219E-09
       158.292624       78.586338      415.084022    19     0     0     0     7   4.160 0.709E-52 0.142E-51 0.553E-09
       148.646724       11.381769      118.995798    10     0     0     0     6   3.360 0.709E-25 0.142E-24 0.633E-07
       150.734745       44.339680      539.575542    12     0     0     0     3   3.570 0.709E-31 0.142E-30 0.146E-07
       157.248215       36.591614     1199.138510     1     0     0     0     3   1.560 0.709E+02 0.142E+03 0.000E+00
       170.898369      163.056464      297.043522    11     0     0     0     5   3.470 0.709E-28 0.142E-27 0.290E-07
        53.647173      107.492386      400.707070    11     0     0     0     7   3.470 0.709E-28 0.142E-27 0.290E-07
       174.137658      192.562614     1087.207638     1     0     0     0     2   1.560 0.709E+02 0.142E+03 0.000E+00
         4.254788      135.226066      559.526675    19     0     0     0     4   4.160 0.709E-52 0.142E-51 0.553E-09
       194.953378       31.553957      120.838931    11     0     0     0     3   3.470 0.709E-28 0.142E-27 0.290E-07
        90.409988       14.959585      315.807017    10     0     0     0     4   3.360 0.709E-25 0.142E-24 0.633E-07
         2.470076        0.330357      180.536418     8     0     0     0     5   3.120 0.709E-19 0.142E-18 0.128E-03
       104.461849      186.308777      291.812963     4     0     0     0     7   2.470 0.709E-07 0.142E-06 0.983E-02
        88.474965       34.211840      298.612400     9     0     0     0     6   3.240 0.709E-22 0.142E-21 0.157E-06
        74.454868       74.363210     1058.787525     1     0     0     0     4   1.560 0.709E+02 0.142E+03 0.000E+00
        94.866926        2.365819       19.328712     5     0     0     0     6   2.660 0.709E-10 0.142E-09 0.347E-02
        32.398077       27.343694     1178.758924     1     0     0     0     5   1.560 0.709E+02 0.142E+03 0.000E+00
       156.468694       95.568496       37.862730    10     0     0     0     6   3.360 0.709E-25 0.142E-24 0.633E-07
        78.005218      183.157072      213.472464     5     0     0     0     8   2.660 0.709E-10 0.142E-09 0.347E-02
       184.491451      157.138314      320.519125    12     0     0     0     1   3.570 0.709E-31 0.142E-30 0.146E-07
         5.663408      129.255247     1396.589624     1     0     0     0     5   1.560 0.709E+02 0.142E+03 0.000E+00
       175.505253      198.001789      114.025482    12     0     0     0     8   3.570 0.709E-31 0.142E-30 0.146E-07
       189.139128      174.886500     1300.173966     1     0     0     0     2   1.560 0.709E+02 0.142E+03 0.000E+00
        96.058982      125.170453     1196.069901     1     0     0     0     3   1.560 0.709E+02 0.142E+03 0.000E+00
        20.533618       83.983208       73.034931    10     0     0     0     5   3.360 0.709E-25 0.142E-24 0.633E-07
        21.787236      148.157159      189.561989     6     0     0     0     1   2.830 0.709E-13 0.142E-12 0.925E-04
         9.034998       29.961261      372.519227    12     0     0     0     8   3.570 0.709E-31 0.142E-30 0.146E-07
       164.056051      146.347234      973.862899    41     0     0     0     3   5.370 0.709-118 0.142-117 0.731E-11
        86.285633      164.519133      163.374767    14     0     0     0     2   3.760 0.709E-37 0.142E-36 0.453E-08
        49.351751      199.911892      323.751254     8     0     0     0     8   3.120 0.709E-19 0.142E-18 0.128E-03
        88.623267      144.174665       88.564805    12     0     0     0     5   3.570 0.709E-31 0.142E-30 0.146E-07
       142.663830      129.976017      590.271989    23     0     0     0     1   4.430 0.709E-64 0.142E-63 0.167E-09
        33.697109       65.399763     1403.523722     1     0     0     0     2   1.560 0.709E+02 0.142E+03 0.000E+00
       136.157686      115.145489      382.870616     6     0     0     0     6   2.830 0.709E-13 0.142E-12 0.925E-04
       140.199234        4.084596      237.410045    11     0     0     0     2   3.470 0.709E-28 0.142E-27 0.290E-07
        87.176475       11.167690     1136.505160     1     0     0     0     1   1.560 0.709E+02 0.142E+03 0.000E+00
       187.466964       22.396876     1468.033936     1     0     0     0     7   1.560 0.709E+02 0.142E+03 0.000E+00
        38.052992      144.469370      277.458803    16     0     0     0     5   3.930 0.709E-43 0.142E-42 0.175E-08
        58.369825      178.232436       63.643941     9     0     0     0     7   3.240 0.709E-22 0.142E-21 0.157E-06
        99.736615       63.517395     1470.619996     1     0     0     0     6   1.560 0.709E+02 0.142E+03 0.000E+00
       177.962426      159.302830       40.143181     6     0     0     0     7   2.830 0.709E-13 0.142E-12 0.925E-04
       101.630774      133.600193      274.102567    11     0     0     0     5   3.470 0.709E-28 0.142E-27 0.290E-07
       139.698075      159.703354      387.870412     8     0     0     0     6   3.120 0.709E-19 0.142E-18 0.128E-03
       164.665974       88.395559     1211.454848     1     0     0     0     8   1.560 0.709E+02 0.142E+03 0.000E+00
       134.691756       73.108936      514.584422    20     0     0     0     1   4.230 0.709E-55 0.142E-54 0.398E-09
        69.915281       31.162092      407.321537    11     0     0     0     4   3.470 0.709E-28 0.142E-27 0.290E-07
        36.055232      158.460714      136.909562     8     0     0     0     8   3.120 0.709E-19 0.142E-18 0.128E-03
        17.214158      161.105156      239.248219    10     0     0     0     8   3.360 0.709E-25 0.142E-24 0.633E-07
       158.554433       69.623419     1218.003906     1     0     0     0     7   1.560 0.709E+02 0.142E+03 0.000E+00
        47.815967       75.836501      316.915706     9     0     0     0     6   3.240 0.709E-22 0.142E-21 0.157E-06
       182.536515      123.660241      154.057776    12     0     0     0     3   3.570 0.709E-31 0.142E-30 0.146E-07
       122.074159       16.510136     1310.303936     1     0     0     0     1   1.560 0.709E+02 0.142E+03 0.000E+00
        63.585400      127.145171      101.709727    11     0     0     0     8   3.470 0.709E-28 0.142E-27 0.290E-07
       178.112244       44.805049     1677.346391     1     0     0     0     2   1.560 0.709E+02 0.142E+03 0.000E+00
       196.855819      130.746666      151.344618    13     0     0     0     3   3.660 0.709E-34 0.142E-33 0.784E-08
        62.596376      142.325975      174.362461    17     0     0     0     6   4.010 0.709E-46 0.142E-45 0.116E-08
       153.705020       45.830946     1259.741354     1     0     0     0     5   1.560 0.709E+02 0.142E+03 0.000E+00
        29.144327       51.612086      654.601244    14     0     0     0     4   3.760 0.709E-37 0.142E-36 0.453E-08
       167.599592       13.913029      255.831142     7     0     0     0     8   2.980 0.709E-16 0.142E-15 0.189E-02
       123.130164       99.218447     1322.922154     1     0     0     0     7   1.560 0.709E+02 0.142E+03 0.000E+00
       126.825642      165.783450     1233.609461     1     0     0     0     1   1.560 0.709E+02 0.142E+03 0.000E+00
        89.424539       46.157001     1180.052401     1     0     0     0     7   1.560 0.709E+02 0.142E+03 0.000E+00
       147.011756      187.597028      659.470206    20     0     0     0     5   4.230 0.709E-55 0.142E-54 0.398E-09
       156.833165       82.166430      500.425169    12     0     0     0     3   3.570 0.709E-31 0.142E-30 0.146E-07
       106.579410      102.054590       59.121998     6     0     0     0     2   2.830 0.709E-13 0.142E-12 0.925E-04
        50.483664       55.314263      342.001508    11     0     0     0     2   3.470 0.709E-28 0.142E-27 0.290E-07
       167.958597      138.124039     1504.485051     1     0     0     0     7   1.560 0.709E+02 0.142E+03 0.000E+00
       124.121270       61.993981      212.204042    14     0     0     0     2   3.760 0.709E-37 0.142E-36 0.453E-08
        69.193054       11.089508      204.626131    19     0     0     0     8   4.160 0.709E-52 0.142E-51 0.553E-09
       180.928504       22.893776      498.095555    14     0     0     0     4   3.760 0.709E-37 0.142E-36 0.453E-08
        65.967448       49.346885      650.917390    21     0     0     0     6   4.300 0.709E-58 0.142E-57 0.292E-09
        58.455026        5.121231     1107.742954     1     0     0     0     6   1.560 0.709E+02 0.142E+03 0.000E+00
        42.758747       83.868651     1275.274214     1     0     0     0     1   1.560 0.709E+02 0.142E+03 0.000E+00
       188.659314      156.546423      960.358714    21     0     0     0     7   4.300 0.709E-58 0.142E-57 0.292E-09
        35.188387      158.137957      986.914166     1     0     0     0     8   1.560 0.709E+02 0.142E+03 0.000E+00
       134.295371      139.322942      167.019906    11     0     0     0     4   3.470 0.709E-28 0.142E-27 0.290E-07
        10.605582       84.411499      697.701822    15     0     0     0     3   3.840 0.709E-40 0.142E-39 0.275E-08
       146.011312      194.158369     1145.646648     1     0     0     0     4   1.560 0.709E+02 0.142E+03 0.000E+00
       167.362368       99.791786     1308.142418     1     0     0     0     3   1.560 0.709E+02 0.142E+03 0.000E+00
       116.490358       58.226885      100.210725    10     0     0     0     5   3.360 0.709E-25 0.142E-24 0.633E-07
        79.525387      166.645840       31.563814     6     0     0     0     5   2.830 0.709E-13 0.142E-12 0.925E-04
        35.538167        2.430727     1166.480972     1     0     0     0     5   1.560 0.709E+02 0.142E+03 0.000E+00
        80.195313       28.451130      592.027274    19     0     0     0     8   4.160 0.709E-52 0.142E-51 0.553E-09
        80.422664      138.339351      756.990888    16     0     0     0     6   3.930 0.709E-43 0.142E-42 0.175E-08
       173.919202      110.405202      116.268054    12     0     0     0     3   3.570 0.709E-31 0.142E-30 0.146E-07
        54.975127       27.033315       91.402026    14     0     0     0     2   3.760 0.709E-37 0.142E-36 0.453E-08
       104.231474      128.312817       47.057942    11     0     0     0     4   3.470 0.709E-28 0.142E-27 0.290E-07
       143.664759      100.921319     1577.753018     1     0     0     0     1   1.560 0.709E+02 0.142E+03 0.000E+00
       172.943435       70.313501      105.857096     4     0     0     0     2   2.470 0.709E-07 0.142E-06 0.983E-02
       157.880213       13.190712       30.079589     8     0     0     0     4   3.120 0.709E-19 0.142E-18 0.128E-03
        82.658531      117.489808      437.260206    13     0     0     0     7   3.660 0.709E-34 0.142E-33 0.784E-08
       170.722489       58.036203     1213.428775     1     0     0     0     7   1.560 0.709E+02 0.142E+03 0.000E+00
        10.284896        5.486749     1322.674415     1     0     0     0     4   1.560 0.709E+02 0.142E+03 0.000E+00
        78.948477      186.130533      270.538431     9     0     0     0     8   3.240 0.709E-22 0.142E-21 0.157E-06
       170.183771       43.901195     1142.677387     1     0     0     0     4   1.560 0.709E+02 0.142E+03 0.000E+00
       122.886934       58.256965      944.155544     1     0     0     0     1   1.560 0.709E+02 0.142E+03 0.000E+00
        52.189601       96.775709      434.766350    15     0     0     0     1   3.840 0.709E-40 0.142E-39 0.275E-08
         6.518599       88.056405     1411.412227     1     0     0     0     4   1.560 0.709E+02 0.142E+03 0.000E+00
       106.199210      145.446176      375.731000    11     0     0     0     6   3.470 0.709E-28 0.142E-27 0.290E-07
       156.294016        8.339443      228.344728     6     0     0     0     2   2.830 0.709E-13 0.142E-12 0.925E-04
        33.949085      189.655045      289.120468     6     0     0     0     2   2.830 0.709E-13 0.142E-12 0.925E-04
         2.341310       99.771996     1190.785932     1     0     0     0     7   1.560 0.709E+02 0.142E+03 0.000E+00
        88.712178       36.856634     1238.315477     1     0     0     0     1   1.560 0.709E+02 0.142E+03 0.000E+00
       187.099156       25.839670      594.451228    18     0     0     0     5   4.080 0.709E-49 0.142E-48 0.788E-09
       156.156103      158.149974      228.244611    11     0     0     0     1   3.470 0.709E-28 0.142E-27 0.290E-07
       140.277058      119.318535      725.001754    24     0     0     0     7   4.500 0.709E-67 0.142E-66 0.130E-09
       104.866043       40.756500     1376.801263     1     0     0     0     7   1.560 0.709E+02 0.142E+03 0.000E+00
       167.082795      130.484526      510.113699    10     0     0     0     1   3.360 0.709E-25 0.142E-24 0.633E-07
       172.303838      117.543909      242.596405     8     0     0     0     8   3.120 0.709E-19 0.142E-18 0.128E-03
       167.800373      167.717694       27.241053    11     0     0     0     4   3.470 0.709E-28 0.142E-27 0.290E-07
       124.471473       44.007639      202.775747    17     0     0     0     2   4.010 0.709E-46 0.142E-45 0.116E-08
       166.658570       84.256192      769.351127    18     0     0     0     2   4.080 0.709E-49 0.142E-48 0.788E-09
       162.106260       26.007547      264.802995    12     0     0     0     7   3.570 0.709E-31 0.142E-30 0.146E-07
       142.025703       25.156099      831.513789    13     0     0     0     6   3.660 0.709E-34 0.142E-33 0.784E-08
        81.636792       71.960602      726.160647    12     0     0     0     7   3.570 0.709E-31 0.142E-30 0.146E-07
       186.506977       27.125986      560.284272    23     0     0     0     4   4.430 0.709E-64 0.142E-63 0.167E-09
         7.068869      105.832722       86.135320    13     0     0     0     1   3.660 0.709E-34 0.142E-33 0.784E-08
       199.687942       60.724353     1459.735506     1     0     0     0     1   1.560 0.709E+02 0.142E+03 0.000E+00
       133.901392      104.550800      300.260916     9     0     0     0     7   3.240 0.709E-22 0.142E-21 0.157E-06
        12.987365      124.706970     1439.633144     1     0     0     0     2   1.560 0.709E+02 0.142E+03 0.000E+00
       145.937555        1.583386      388.653396     6     0     0     0     6   2.830 0.709E-13 0.142E-12 0.925E-04
        33.843299      128.325329      806.465308    25     0     0     0     3   4.560 0.709E-70 0.142E-69 0.102E-09
       172.384937      175.204079     1133.817135     1     0     0     0     2   1.560 0.709E+02 0.142E+03 0.000E+00
       193.490721       78.092685     1231.288809     1     0     0     0     6   1.560 0.709E+02 0.142E+03 0.000E+00
       185.519586       83.619158       99.297485    12     0     0     0     2   3.570 0.709E-31 0.142E-30 0.146E-07
       142.871798       46.990143     1165.236895     1     0     0     0     8   1.560 0.709E+02 0.142E+03 0.000E+00
       174.540021      182.971298      217.515010    10     0     0     0     2   3.360 0.709E-25 0.142E-24 0.633E-07
        43.883848       10.930155     1522.892133     1     0     0     0     8   1.560 0.709E+02 0.142E+03 0.000E+00
       122.011297      186.061425       87.832890    10     0     0     0     1   3.360 0.709E-25 0.142E-24 0.633E-07
        63.514784        9.564383      426.956287     9     0     0     0     3   3.240 0.709E-22 0.142E-21 0.157E-06
       122.847730      134.822810       83.015571    11     0     0     0     7   3.470 0.709E-28 0.142E-27 0.290E-07
        59.942700       23.938973      303.833771    18     0     0     0     2   4.080 0.709E-49 0.142E-48 0.788E-09
       119.343147       98.027318       54.225113     9     0     0     0     4   3.240 0.709E-22 0.142E-21 0.157E-06
       163.979689      116.460209       47.705366    11     0     0     0     2   3.470 0.709E-28 0.142E-27 0.290E-07
       102.295990      111.197807     1328.552789     1     0     0     0     3   1.560 0.709E+02 0.142E+03 0.000E+00
       102.227663      100.957470     1987.167877     1     0     0     0     3   1.560 0.709E+02 0.142E+03 0.000E+00
       121.818578       42.282754      474.555443    11     0     0     0     8   3.470 0.709E-28 0.142E-27 0.290E-07
        72.660095      132.359960      253.137131     7     0     0     0     6   2.980 0.709E-16 0.142E-15 0.189E-02
        65.273638       47.718646       48.153904    12     0     0     0     4   3.570 0.709E-31 0.142E-30 0.146E-07
       134.742549      198.787342      189.410627    13     0     0     0     6   3.660 0.709E-34 0.142E-33 0.784E-08
       131.003527      135.578536      417.679856    15     0     0     0     4   3.840 0.709E-40 0.142E-39 0.275E-08
       151.642140      137.794290      276.918627     7     0     0     0     6   2.980 0.709E-16 0.142E-15 0.189E-02
       133.722399      128.123543      873.629860    15     0     0     0     5   3.840 0.709E-40 0.142E-39 0.275E-08
       189.092985      144.765918      794.981515    18     0     0     0     8   4.080 0.709E-49 0.142E-48 0.788E-09
        92.433881      170.491461      138.245294    13     0     0     0     5   3.660 0.709E-34 0.142E-33 0.784E-08
        78.136666      163.104439      991.443132     1     0     0     0     8   1.560 0.709E+02 0.142E+03 0.000E+00
        39.214112       34.420921      130.047918    18     0     0     0     2   4.080 0.709E-49 0.142E-48 0.788E-09
        21.455098      170.980206      143.003419    13     0     0     0     8   3.660 0.709E-34 0.142E-33 0.784E-08
        27.083587       16.609617      372.239203     9     0     0     0     2   3.240 0.709E-22 0.142E-21 0.157E-06
       137.143253      159.099300      820.148252    21     0     0     0     6   4.300 0.709E-58 0.142E-57 0.292E-09
       129.847447       90.591608      978.556820     1     0     0     0     6   1.560 0.709E+02 0.142E+03 0.000E+00
       174.794023      145.135793      574.364041     7     0     0     0     5   2.980 0.709E-16 0.142E-15 0.189E-02
         3.589133        9.045017       94.841187    23     0     0     0     5   4.430 0.709E-64 0.142E-63 0.167E-09
        93.024411      139.894656      625.214478    18     0     0     0     3   4.080 0.709E-49 0.142E-48 0.788E-09
        84.249420       51.644100      299.627423     8     0     0     0     1   3.120 0.709E-19 0.142E-18 0.128E-03
        83.675030       86.362751      489.752464    17     0     0     0     5   4.010 0.709E-46 0.142E-45 0.116E-08
       137.354561      191.114112     1036.682880    34     0     0     0     7   5.050 0.709E-97 0.142E-96 0.188E-10
       191.647004      106.957208       41.023411    14     0     0     0     5   3.760 0.709E-37 0.142E-36 0.453E-08
       109.213448       33.419798     1456.763072     1     0     0     0     8   1.560 0.709E+02 0.142E+03 0.000E+00
       183.365511       87.875195       66.529253     9     0     0     0     3   3.240 0.709E-22 0.142E-21 0.157E-06
       157.066830       30.971370      286.115563    11     0     0     0     2   3.470 0.709E-28 0.142E-27 0.290E-07
        16.698661      154.469899      359.965798    10     0     0     0     7   3.360 0.709E-25 0.142E-24 0.633E-07
       158.733123      142.426843       92.670934     9     0     0     0     6   3.240 0.709E-22 0.142E-21 0.157E-06
        74.651841       10.524273      640.671566    20     0     0     0     3   4.230 0.709E-55 0.142E-54 0.398E-09
       136.148615       61.403148     1691.918505     1     0     0     0     5   1.560 0.709E+02 0.142E+03 0.000E+00
        67.039214       19.488600      235.468423    16     0     0     0     1   3.930 0.709E-43 0.142E-42 0.175E-08
        14.620965       42.030617       75.171912    17     0     0     0     5   4.010 0.709E-46 0.142E-45 0.116E-08
        39.807883      131.272971       69.574621     8     0     0     0     2   3.120 0.709E-19 0.142E-18 0.128E-03
         5.501971       19.610845     1479.109023     1     0     0     0     8   1.560 0.709E+02 0.142E+03 0.000E+00
       158.244390      141.507947     1485.275395     1     0     0     0     4   1.560 0.709E+02 0.142E+03 0.000E+00
        77.048260      155.468386      578.055124    14     0     0     0     8   3.760 0.709E-37 0.142E-36 0.453E-08
         8.911977       51.395492     1121.864931     1     0     0     0     1   1.560 0.709E+02 0.142E+03 0.000E+00
       124.106070      177.467263      339.654389     7     0     0     0     2   2.980 0.709E-16 0.142E-15 0.189E-02
        76.236670      153.594712     1299.442960     1     0     0     0     1   1.560 0.709E+02 0.142E+03 0.000E+00
         9.968392      150.849465      389.379456    15     0     0     0     8   3.840 0.709E-40 0.142E-39 0.275E-08
        41.600709      143.317599      882.750915     1     0     0     0     3   1.560 0.709E+02 0.142E+03 0.000E+00
       134.714530      192.794553     1137.515016     1     0     0     0     6   1.560 0.709E+02 0.142E+03 0.000E+00
        81.740453       40.801116      619.303770    11     0     0     0     7   3.470 0.709E-28 0.142E-27 0.290E-07
       118.313144      104.423288      852.467424    32     0     0     0     1   4.950 0.709E-91 0.142E-90 0.258E-10
       122.726659       38.649775      783.797179    24     0     0     0     8   4.500 0.709E-67 0.142E-66 0.130E-09
       163.899657       47.470992      252.619155     8     0     0     0     4   3.120 0.709E-19 0.142E-18 0.128E-03
        56.551751      147.228954     2125.070644     1     0     0     0     2   1.560 0.709E+02 0.142E+03 0.000E+00
       194.970010      180.427665      386.196369    15     0     0     0     5   3.840 0.709E-40 0.142E-39 0.275E-08
       144.649418       69.552585     1226.701640     1     0     0     0     1   1.560 0.709E+02 0.142E+03 0.000E+00
        29.118574        2.918837      960.524251    21     0     0     0     3   4.300 0.709E-58 0.142E-57 0.292E-09
       116.469202       70.550058      668.714295    10     0     0     0     8   3.360 0.709E-25 0.142E-24 0.633E-07
        87.302005      152.429467       92.463803    11     0     0     0     8   3.470 0.709E-28 0.142E-27 0.290E-07
        58.487605      198.702774      218.865639    11     0     0     0     5   3.470 0.709E-28 0.142E-27 0.290E-07
        76.931506      118.525874      682.106061    20     0     0     0     6   4.230 0.709E-55 0.142E-54 0.398E-09
         4.106696      134.829732     1059.177276     1     0     0     0     3   1.560 0.709E+02 0.142E+03 0.000E+00
        72.935096      195.157005      282.490223     6     0     0     0     8   2.830 0.709E-13 0.142E-12 0.925E-04
       197.397519       60.310408     1857.714639     1     0     0     0     1   1.560 0.709E+02 0.142E+03 0.000E+00
       146.496027       50.757826       95.220335     8     0     0     0     1   3.120 0.709E-19 0.142E-18 0.128E-03
        37.395648       99.975636      587.599734    12     0     0     0     3   3.570 0.709E-31 0.142E-30 0.146E-07
        85.357126      115.750468     1728.729696     1     0     0     0     4   1.560 0.709E+02 0.142E+03 0.000E+00
       164.514540        0.054582      184.467838    18     0     0     0     6   4.080 0.709E-49 0.142E-48 0.788E-09
        42.373484      102.159892     1682.997756     1     0     0     0     6   1.560 0.709E+02 0.142E+03 0.000E+00
        56.129533      122.381657      155.283408     9     0     0     0     3   3.240 0.709E-22 0.142E-21 0.157E-06
       118.167413      169.709737      691.073765    24     0     0     0     2   4.500 0.709E-67 0.142E-66 0.130E-09
        64.556375       46.922439      388.368970    11     0     0     0     2   3.470 0.709E-28 0.142E-27 0.290E-07
        88.825713       68.566397     1394.953081     1     0     0     0     8   1.560 0.709E+02 0.142E+03 0.000E+00
       195.731233       36.403965      129.665418     8     0     0     0     5   3.120 0.709E-19 0.142E-18 0.128E-03
        66.581329      110.348930      239.755886     8     0     0     0     8   3.120 0.709E-19 0.142E-18 0.128E-03
        14.356484        0.529404       92.326420     6     0     0     0     5   2.830 0.709E-13 0.142E-12 0.925E-04
       109.958791      121.391651     1524.340862     1     0     0     0     4   1.560 0.709E+02 0.142E+03 0.000E+00