ITEM: TIMESTEP
0
ITEM: NUMBER OF ATOMS
        4291
ITEM: BOX BOUNDS pp pp pp
  0.0000000E+00   200.000000000000     
  0.0000000E+00   200.000000000000     
  0.0000000E+00   5000.00000000000     
ITEM: ATOMS x y z f1 f2 f3 f4 orient radius rate_mig rate_rot rate_emit
       119.312699      193.245270      256.966214     1     0     0     0     7   1.560 0.709E+02 0.142E+03 0.000E+00
       105.427871      169.291122      303.853180     1     0     0     0     5   1.560 0.709E+02 0.142E+03 0.000E+00
        11.799923       98.293912      888.120152     1     0     0     0     7   1.560 0.709E+02 0.142E+03 0.000E+00
       167.442716      156.543465      488.003918     1     0     0     0     3   1.560 0.709E+02 0.142E+03 0.000E+00
         6.669604       28.815106      172.792032     1     0     0     0     5   1.560 0.709E+02 0.142E+03 0.000E+00
       163.918850       77.356630      353.459732     1     0     0     0     5   1.560 0.709E+02 0.142E+03 0.000E+00
        91.930758       76.303205      534.560829     4     1     0     0     1   2.474 0.000E+00 0.000E+00 0.412E+02
       107.503916      116.856757      111.916098     1     0     0     0     8   1.560 0.709E+02 0.142E+03 0.000E+00
         5.203340       95.538761      408.397096     1     0     0     0     4   1.560 0.709E+02 0.142E+03 0.000E+00
       198.864825      156.483891     1104.336520     1     0     0     0     7   1.560 0.709E+02 0.142E+03 0.000E+00
       138.298926      127.345900       32.290200     1     0     0     0     7   1.560 0.709E+02 0.142E+03 0.000E+00
       155.567488       47.078405      824.085581     1     0     0     0     2   1.560 0.709E+02 0.142E+03 0.000E+00
       107.975541      139.856291      153.847192     1     0     0     0     3   1.560 0.709E+02 0.142E+03 0.000E+00
        33.400688       99.356361      178.090408     1     0     0     0     5   1.560 0.709E+02 0.142E+03 0.000E+00
       164.990993       61.666655      162.638251     1     0     0     0     1   1.560 0.709E+02 0.142E+03 0.000E+00
       176.674858      129.057038      749.326658     1     0     0     0     4   1.560 0.709E+02 0.142E+03 0.000E+00
       186.060451       88.406400      319.272338     5     3     0     0     5   2.665 0.000E+00 0.000E+00 0.401E+03
        44.817886       51.836736      260.211223     1     0     0     0     8   1.560 0.709E+02 0.142E+03 0.000E+00
       180.663138        9.933058     1106.395551     1     0     0     0     1   1.560 0.709E+02 0.142E+03 0.000E+00
        56.498870       27.258086      333.851359     1     0     0     0     2   1.560 0.709E+02 0.142E+03 0.000E+00
        33.314783      161.656842       56.807103     1     0     0     0     8   1.560 0.709E+02 0.142E+03 0.000E+00
        35.606971      115.005303      333.409499     1     0     0     0     2   1.560 0.709E+02 0.142E+03 0.000E+00
        98.690678        5.327971      324.586190     3     1     0     0     5   2.248 0.000E+00 0.000E+00 0.406E+01
       161.995032       22.162578      145.323564     1     0     0     0     6   1.560 0.709E+02 0.142E+03 0.000E+00
         7.728016       17.542950      487.033749     1     0     0     0     6   1.560 0.709E+02 0.142E+03 0.000E+00
        83.316740       85.380587      488.532645     3     1     0     0     4   2.248 0.000E+00 0.000E+00 0.406E+01
        58.088004       42.162998      734.642983     1     0     0     0     7   1.560 0.709E+02 0.142E+03 0.000E+00
       132.147928        9.169890     1059.193736     1     0     0     0     3   1.560 0.709E+02 0.142E+03 0.000E+00
       110.316947        4.618615      151.673075     1     0     0     0     5   1.560 0.709E+02 0.142E+03 0.000E+00
       164.453492      195.397671      700.699488     4     1     0     0     7   2.474 0.000E+00 0.000E+00 0.412E+02
         9.994792       25.395604      489.280955     1     0     0     0     3   1.560 0.709E+02 0.142E+03 0.000E+00
       176.997909       10.323388      306.829326     1     0     0     0     1   1.560 0.709E+02 0.142E+03 0.000E+00
       195.278114      111.068498     1088.807361     1     0     0     0     2   1.560 0.709E+02 0.142E+03 0.000E+00
       184.192354      159.942069      404.809667     1     0     0     0     5   1.560 0.709E+02 0.142E+03 0.000E+00
        37.264062      101.797829      736.368932     1     0     0     0     3   1.560 0.709E+02 0.142E+03 0.000E+00
       107.029989      149.700678      573.346447     1     0     0     0     5   1.560 0.709E+02 0.142E+03 0.000E+00
       180.350377       99.923156      142.482873     1     0     0     0     2   1.560 0.709E+02 0.142E+03 0.000E+00
        84.578913      114.141100      504.613367     1     0     0     0     1   1.560 0.709E+02 0.142E+03 0.000E+00
        21.315208       22.545646      574.993375     1     0     0     0     6   1.560 0.709E+02 0.142E+03 0.000E+00
        54.281810      197.823430      170.323157     1     0     0     0     6   1.560 0.709E+02 0.142E+03 0.000E+00
        39.181268      155.353009      641.417976     1     0     0     0     1   1.560 0.709E+02 0.142E+03 0.000E+00
        72.973420       49.642643      351.255423     1     0     0     0     6   1.560 0.709E+02 0.142E+03 0.000E+00
       199.288390      157.463671      510.992138     1     0     0     0     4   1.560 0.709E+02 0.142E+03 0.000E+00
       169.411217       97.308682      164.928045     1     0     0     0     2   1.560 0.709E+02 0.142E+03 0.000E+00
       195.641601      157.691947       88.735114     1     0     0     0     3   1.560 0.709E+02 0.142E+03 0.000E+00
       119.370942      109.609406      273.261162     1     0     0     0     8   1.560 0.709E+02 0.142E+03 0.000E+00
        71.811077      151.034022      692.278491     1     0     0     0     4   1.560 0.709E+02 0.142E+03 0.000E+00
        59.296257      175.730418      471.221554     1     0     0     0     4   1.560 0.709E+02 0.142E+03 0.000E+00
       155.782343       60.108259     1161.832757     1     0     0     0     6   1.560 0.709E+02 0.142E+03 0.000E+00
        32.510447       59.627217      505.994099     1     0     0     0     7   1.560 0.709E+02 0.142E+03 0.000E+00
        80.546939       39.541920      431.158439     1     0     0     0     3   1.560 0.709E+02 0.142E+03 0.000E+00
       108.552259      165.943920      686.328295     1     0     0     0     5   1.560 0.709E+02 0.142E+03 0.000E+00
        81.009261       83.283364      544.530176     1     0     0     0     8   1.560 0.709E+02 0.142E+03 0.000E+00
         0.473237      125.906209      331.690655     1     0     0     0     7   1.560 0.709E+02 0.142E+03 0.000E+00
       162.429366       87.049601      473.198150     1     0     0     0     8   1.560 0.709E+02 0.142E+03 0.000E+00
       142.657905      107.230596      158.200893     1     0     0     0     2   1.560 0.709E+02 0.142E+03 0.000E+00
        54.311880       69.285681      848.633644     1     0     0     0     4   1.560 0.709E+02 0.142E+03 0.000E+00
       139.879371       27.856542      254.030738     1     0     0     0     8   1.560 0.709E+02 0.142E+03 0.000E+00
        44.211860      157.964634      407.337992     1     0     0     0     7   1.560 0.709E+02 0.142E+03 0.000E+00
         7.588015      189.627921      342.517537     1     0     0     0     8   1.560 0.709E+02 0.142E+03 0.000E+00
       104.846315       16.267813       84.496345     1     0     0     0     2   1.560 0.709E+02 0.142E+03 0.000E+00
        14.619720      156.972639      718.544389     1     0     0     0     6   1.560 0.709E+02 0.142E+03 0.000E+00
       178.182528       37.664817      230.526059     1     0     0     0     3   1.560 0.709E+02 0.142E+03 0.000E+00
       194.721632      152.774646      159.032595     1     0     0     0     2   1.560 0.709E+02 0.142E+03 0.000E+00
        43.727086      174.305326      482.947713     4     4     0     0     2   2.474 0.000E+00 0.000E+00 0.558E+03
       198.494723       41.270564      458.771595     1     0     0     0     8   1.560 0.709E+02 0.142E+03 0.000E+00
        99.001474      159.739604      308.025682     1     0     0     0     1   1.560 0.709E+02 0.142E+03 0.000E+00
       189.635547       52.648987      870.180360     1     0     0     0     6   1.560 0.709E+02 0.142E+03 0.000E+00
       129.051149      188.219679      198.634316     1     0     0     0     5   1.560 0.709E+02 0.142E+03 0.000E+00
       157.784868      116.786662      284.490428     1     0     0     0     5   1.560 0.709E+02 0.142E+03 0.000E+00
       118.705725      159.059197      819.433226     1     0     0     0     8   1.560 0.709E+02 0.142E+03 0.000E+00
        73.651965        1.614472      566.665447     1     0     0     0     4   1.560 0.709E+02 0.142E+03 0.000E+00
       116.056535      187.399705      405.459979     1     0     0     0     1   1.560 0.709E+02 0.142E+03 0.000E+00
        53.822174      146.737855      434.799817     1     0     0     0     7   1.560 0.709E+02 0.142E+03 0.000E+00
       146.741919      113.037746      637.130238     1     0     0     0     3   1.560 0.709E+02 0.142E+03 0.000E+00
        61.787852       96.810748      320.589764     1     0     0     0     2   1.560 0.709E+02 0.142E+03 0.000E+00
        85.436963       71.425396      893.398951     1     0     0     0     4   1.560 0.709E+02 0.142E+03 0.000E+00
        79.008453      134.567696      880.519494     1     0     0     0     3   1.560 0.709E+02 0.142E+03 0.000E+00
        50.281584       24.966246      143.369014     1     0     0     0     7   1.560 0.709E+02 0.142E+03 0.000E+00
        44.575719       50.881927      281.068472     1     0     0     0     4   1.560 0.709E+02 0.142E+03 0.000E+00
        13.450202       59.578236       56.181654     1     0     0     0     7   1.560 0.709E+02 0.142E+03 0.000E+00
       151.434105       98.679577      609.402080     1     0     0     0     2   1.560 0.709E+02 0.142E+03 0.000E+00
        73.803983      118.174856      519.802596     1     0     0     0     2   1.560 0.709E+02 0.142E+03 0.000E+00
       155.530218       59.978596      423.939119     1     0     0     0     6   1.560 0.709E+02 0.142E+03 0.000E+00
       141.701876      156.614743      586.206945     1     0     0     0     6   1.560 0.709E+02 0.142E+03 0.000E+00
        10.039341      113.442275      239.527753     1     0     0     0     4   1.560 0.709E+02 0.142E+03 0.000E+00
       133.180358       87.508223       51.533484     1     0     0     0     8   1.560 0.709E+02 0.142E+03 0.000E+00
        80.719161      113.578366      782.417530     1     0     0     0     3   1.560 0.709E+02 0.142E+03 0.000E+00
        67.133738      199.147260      997.157413     1     0     0     0     8   1.560 0.709E+02 0.142E+03 0.000E+00
       126.860033       24.761142      166.597430     1     0     0     0     8   1.560 0.709E+02 0.142E+03 0.000E+00
       123.540009       24.834351      360.120640     1     0     0     0     6   1.560 0.709E+02 0.142E+03 0.000E+00
       163.406550      137.712052      140.223601     1     0     0     0     2   1.560 0.709E+02 0.142E+03 0.000E+00
       182.039593       23.299723      624.597996     1     0     0     0     8   1.560 0.709E+02 0.142E+03 0.000E+00
       120.970245      121.625890       28.847745     1     0     0     0     8   1.560 0.709E+02 0.142E+03 0.000E+00
        52.474201       32.117603      741.124828     1     0     0     0     5   1.560 0.709E+02 0.142E+03 0.000E+00
       162.341144      157.615945      647.962360     9     5     0     0     6   3.241 0.000E+00 0.000E+00 0.132E+03
        43.401948       91.014185      596.397761     1     0     0     0     8   1.560 0.709E+02 0.142E+03 0.000E+00
         3.735995       53.029179       40.137148     1     0     0     0     4   1.560 0.709E+02 0.142E+03 0.000E+00
        19.798717       54.501461       45.770554     1     0     0     0     2   1.560 0.709E+02 0.142E+03 0.000E+00
       174.340082      183.299560       35.866537     1     0     0     0     5   1.560 0.709E+02 0.142E+03 0.000E+00
       175.875110      175.632256     1109.428743     1     0     0     0     4   1.560 0.709E+02 0.142E+03 0.000E+00
        32.589027      105.585091      694.004773     1     0     0     0     3   1.560 0.709E+02 0.142E+03 0.000E+00
       169.883706        5.903495      511.487699     1     0     0     0     3   1.560 0.709E+02 0.142E+03 0.000E+00
        66.215001      161.832423       70.722308     1     0     0     0     3   1.560 0.709E+02 0.142E+03 0.000E+00
       132.059886       35.700275      459.302465     3     1     0     0     7   2.248 0.000E+00 0.000E+00 0.406E+01
        30.972786      144.942601      958.182861     3     1     0     0     5   2.248 0.000E+00 0.000E+00 0.406E+01
        44.788952      108.000500      494.854215     1     0     0     0     3   1.560 0.709E+02 0.142E+03 0.000E+00
       185.995070       92.689563      461.285618     1     0     0     0     1   1.560 0.709E+02 0.142E+03 0.000E+00
       142.249828      197.722183      933.815124     1     0     0     0     8   1.560 0.709E+02 0.142E+03 0.000E+00
        57.904311      164.368199      482.597118     1     0     0     0     2   1.560 0.709E+02 0.142E+03 0.000E+00
        84.972605       78.301509      979.273803     1     0     0     0     3   1.560 0.709E+02 0.142E+03 0.000E+00
       192.027124      148.845299      995.640868     1     0     0     0     2   1.560 0.709E+02 0.142E+03 0.000E+00
       123.907213       84.944660      299.314654     1     0     0     0     5   1.560 0.709E+02 0.142E+03 0.000E+00
       198.387188       53.206155      475.999213     1     0     0     0     4   1.560 0.709E+02 0.142E+03 0.000E+00
         5.570295      129.270451      569.622377     1     0     0     0     6   1.560 0.709E+02 0.142E+03 0.000E+00
       108.679975      180.687207      121.889129     1     0     0     0     6   1.560 0.709E+02 0.142E+03 0.000E+00
        87.315991       51.158994      198.217498     1     0     0     0     6   1.560 0.709E+02 0.142E+03 0.000E+00
         3.886392       19.739190      280.919328     1     0     0     0     1   1.560 0.709E+02 0.142E+03 0.000E+00
       194.790865       64.232065      238.328631     1     0     0     0     3   1.560 0.709E+02 0.142E+03 0.000E+00
        96.645292       76.149833      852.678559     1     0     0     0     1   1.560 0.709E+02 0.142E+03 0.000E+00
        92.170494       31.728614      726.826898     1     0     0     0     3   1.560 0.709E+02 0.142E+03 0.000E+00
        73.099024       54.413223     1100.609925     1     0     0     0     5   1.560 0.709E+02 0.142E+03 0.000E+00
       139.606698      124.263050      849.335724     1     0     0     0     4   1.560 0.709E+02 0.142E+03 0.000E+00
       166.711171       40.242217      332.229873     1     0     0     0     6   1.560 0.709E+02 0.142E+03 0.000E+00
       174.850188       10.869978      506.521217     1     0     0     0     2   1.560 0.709E+02 0.142E+03 0.000E+00
       123.590487       92.546610       59.498091     1     0     0     0     6   1.560 0.709E+02 0.142E+03 0.000E+00
       112.044129      192.981090      439.067966     1     0     0     0     5   1.560 0.709E+02 0.142E+03 0.000E+00
       130.384724      129.832423     1109.355141     1     0     0     0     1   1.560 0.709E+02 0.142E+03 0.000E+00
        38.837177       36.889884      181.160281     1     0     0     0     7   1.560 0.709E+02 0.142E+03 0.000E+00
        23.057575      150.265453       21.752549     1     0     0     0     2   1.560 0.709E+02 0.142E+03 0.000E+00
        43.632977      130.802783      529.840951     1     0     0     0     6   1.560 0.709E+02 0.142E+03 0.000E+00
       156.347598      157.093142      228.779881     5     0     0     0     2   2.660 0.709E-10 0.142E-09 0.347E-02
        77.663123      147.771516      499.974312     1     0     0     0     8   1.560 0.709E+02 0.142E+03 0.000E+00
        38.965133       79.055489      112.117750     1     0     0     0     4   1.560 0.709E+02 0.142E+03 0.000E+00
       151.305489       17.982744      687.008114     1     0     0     0     3   1.560 0.709E+02 0.142E+03 0.000E+00
        90.809429      117.230419      574.203623     1     0     0     0     4   1.560 0.709E+02 0.142E+03 0.000E+00
        40.328879      195.386014      609.697047     1     0     0     0     7   1.560 0.709E+02 0.142E+03 0.000E+00
       140.723428      117.234900      397.047899     1     0     0     0     8   1.560 0.709E+02 0.142E+03 0.000E+00
        37.892883       57.199823      176.881588     1     0     0     0     8   1.560 0.709E+02 0.142E+03 0.000E+00
        59.469849      196.577362      406.003356     4     2     0     0     2   2.474 0.000E+00 0.000E+00 0.675E+02
       113.563427       64.847116      928.980369     1     0     0     0     5   1.560 0.709E+02 0.142E+03 0.000E+00
        70.948608       20.761863      338.591405     1     0     0     0     4   1.560 0.709E+02 0.142E+03 0.000E+00
       185.892062      105.942494      635.579632     1     0     0     0     1   1.560 0.709E+02 0.142E+03 0.000E+00
        13.737159       53.184054       10.665108     7     0     0     0     2   2.980 0.709E-16 0.142E-15 0.189E-02
        20.567218        9.049622      109.646615     1     0     0     0     1   1.560 0.709E+02 0.142E+03 0.000E+00
         2.313633      177.594045      474.396493     1     0     0     0     3   1.560 0.709E+02 0.142E+03 0.000E+00
        45.353252       20.572198      662.484562     1     0     0     0     8   1.560 0.709E+02 0.142E+03 0.000E+00
        74.383859      164.486010       19.356968     1     0     0     0     5   1.560 0.709E+02 0.142E+03 0.000E+00
       162.062549       83.845526      867.322734     1     0     0     0     1   1.560 0.709E+02 0.142E+03 0.000E+00
         6.129812      114.417199      385.852785     1     0     0     0     5   1.560 0.709E+02 0.142E+03 0.000E+00
        42.977291       16.553040      399.085829     1     0     0     0     2   1.560 0.709E+02 0.142E+03 0.000E+00
        37.302111      118.663232      436.429221     1     0     0     0     4   1.560 0.709E+02 0.142E+03 0.000E+00
       151.404138      174.594269      402.813882     1     0     0     0     4   1.560 0.709E+02 0.142E+03 0.000E+00
       124.121725       34.136545      637.057250     1     0     0     0     2   1.560 0.709E+02 0.142E+03 0.000E+00
       102.539576       40.106935       70.699998     1     0     0     0     1   1.560 0.709E+02 0.142E+03 0.000E+00
        47.890465       27.509684      773.029056     1     0     0     0     2   1.560 0.709E+02 0.142E+03 0.000E+00
       193.070630       10.279231      564.533428     1     0     0     0     2   1.560 0.709E+02 0.142E+03 0.000E+00
       150.611923       79.635524      865.962121     1     0     0     0     5   1.560 0.709E+02 0.142E+03 0.000E+00
       128.285363       74.846216     1041.737531     1     0     0     0     3   1.560 0.709E+02 0.142E+03 0.000E+00
         5.678949       64.371538      207.636517     1     0     0     0     2   1.560 0.709E+02 0.142E+03 0.000E+00
       109.016966      174.808300      372.017764     1     0     0     0     8   1.560 0.709E+02 0.142E+03 0.000E+00
       138.422387      171.285200      802.970957     1     0     0     0     2   1.560 0.709E+02 0.142E+03 0.000E+00
       172.946456        0.621541      633.295033     1     0     0     0     5   1.560 0.709E+02 0.142E+03 0.000E+00
        53.428445       32.151255      804.078791     1     1     0     0     1   1.558 0.000E+00 0.000E+00 0.356E+05
         9.852645      159.103603       75.105863     1     0     0     0     3   1.560 0.709E+02 0.142E+03 0.000E+00
        41.804667      113.983911      524.984492     1     0     0     0     6   1.560 0.709E+02 0.142E+03 0.000E+00
        70.597240       78.479230      626.026528     1     0     0     0     2   1.560 0.709E+02 0.142E+03 0.000E+00
       176.505766       66.279088      562.167751     1     0     0     0     2   1.560 0.709E+02 0.142E+03 0.000E+00
       183.905167      177.579769      611.859945     1     0     0     0     2   1.560 0.709E+02 0.142E+03 0.000E+00
        73.350556      130.031689      160.521682     1     0     0     0     1   1.560 0.709E+02 0.142E+03 0.000E+00
       191.421901       66.623978      308.266130     1     0     0     0     8   1.560 0.709E+02 0.142E+03 0.000E+00
        99.359901       88.545927       89.367678     1     0     0     0     4   1.560 0.709E+02 0.142E+03 0.000E+00
         4.182329      192.425439      113.169822     1     0     0     0     5   1.560 0.709E+02 0.142E+03 0.000E+00
        88.448097       16.136888      685.648025     1     0     0     0     8   1.560 0.709E+02 0.142E+03 0.000E+00
       142.684265       26.624752      546.214584     1     0     0     0     1   1.560 0.709E+02 0.142E+03 0.000E+00
        71.300206      169.289676      452.588100     1     0     0     0     1   1.560 0.709E+02 0.142E+03 0.000E+00
        56.434251       28.980319      351.938347     1     0     0     0     4   1.560 0.709E+02 0.142E+03 0.000E+00
        46.588961       90.283114      744.459386     1     0     0     0     7   1.560 0.709E+02 0.142E+03 0.000E+00
        44.021314      129.617158      104.415010     1     0     0     0     1   1.560 0.709E+02 0.142E+03 0.000E+00
       164.678188      107.647573       59.146066     1     0     0     0     7   1.560 0.709E+02 0.142E+03 0.000E+00
       192.321676      107.045946       40.771873     7     0     0     0     8   2.980 0.709E-16 0.142E-15 0.189E-02
       123.724282      137.883818      232.227869     1     0     0     0     2   1.560 0.709E+02 0.142E+03 0.000E+00
       110.724472      183.426355      913.724460     1     0     0     0     4   1.560 0.709E+02 0.142E+03 0.000E+00
       116.485534      151.937734      150.713108     1     0     0     0     5   1.560 0.709E+02 0.142E+03 0.000E+00
       171.824093       16.989574      142.523021     1     0     0     0     4   1.560 0.709E+02 0.142E+03 0.000E+00
        56.263488       25.041779       44.362851     1     0     0     0     8   1.560 0.709E+02 0.142E+03 0.000E+00
       177.135959       16.259188      288.023486     1     0     0     0     7   1.560 0.709E+02 0.142E+03 0.000E+00
        41.434104      147.243638      856.760881     1     0     0     0     3   1.560 0.709E+02 0.142E+03 0.000E+00
       140.139867      162.384046       90.706019     1     0     0     0     1   1.560 0.709E+02 0.142E+03 0.000E+00
        83.498129       75.205920      331.082013     1     0     0     0     6   1.560 0.709E+02 0.142E+03 0.000E+00
       175.402854       81.323547       72.955178     1     0     0     0     4   1.560 0.709E+02 0.142E+03 0.000E+00
       126.285252      159.723763      569.723697     1     0     0     0     5   1.560 0.709E+02 0.142E+03 0.000E+00
        58.279124      110.936834      545.265313     1     0     0     0     4   1.560 0.709E+02 0.142E+03 0.000E+00
        65.679934      113.273304      624.234140     1     0     0     0     3   1.560 0.709E+02 0.142E+03 0.000E+00
        84.450507       92.330804      486.882454     1     0     0     0     6   1.560 0.709E+02 0.142E+03 0.000E+00
       123.976095       67.326454      990.340132     1     0     0     0     7   1.560 0.709E+02 0.142E+03 0.000E+00
       194.738003      175.253998      364.676262     1     0     0     0     8   1.560 0.709E+02 0.142E+03 0.000E+00
        69.870779      105.085253      776.323994     1     0     0     0     8   1.560 0.709E+02 0.142E+03 0.000E+00
        87.609776       59.938680       19.623320     1     0     0     0     3   1.560 0.709E+02 0.142E+03 0.000E+00
       147.521489      118.316582      134.000183     1     0     0     0     7   1.560 0.709E+02 0.142E+03 0.000E+00
        48.487584      103.435647     1089.666451     1     0     0     0     7   1.560 0.709E+02 0.142E+03 0.000E+00
       185.358574      107.819349     1173.718536     1     0     0     0     4   1.560 0.709E+02 0.142E+03 0.000E+00
       100.197684      166.350631      451.986796     1     0     0     0     3   1.560 0.709E+02 0.142E+03 0.000E+00
        54.636000      189.579135      126.484179     1     0     0     0     3   1.560 0.709E+02 0.142E+03 0.000E+00
       131.293427       44.442077      330.614484     1     0     0     0     6   1.560 0.709E+02 0.142E+03 0.000E+00
         4.278030      117.781382      752.787072     1     0     0     0     8   1.560 0.709E+02 0.142E+03 0.000E+00
        84.855196       95.404654      362.993852     1     0     0     0     3   1.560 0.709E+02 0.142E+03 0.000E+00
        20.585604      113.054752      327.378701     1     0     0     0     8   1.560 0.709E+02 0.142E+03 0.000E+00
       124.818258       75.164773      236.206235     1     0     0     0     2   1.560 0.709E+02 0.142E+03 0.000E+00
       103.132444      120.284149      695.691160     1     0     0     0     5   1.560 0.709E+02 0.142E+03 0.000E+00
        43.477950       98.535037      938.269795     1     0     0     0     6   1.560 0.709E+02 0.142E+03 0.000E+00
       106.149662      141.723355     1060.966717     1     0     0     0     5   1.560 0.709E+02 0.142E+03 0.000E+00
        41.272161       47.900701      641.234273     1     0     0     0     6   1.560 0.709E+02 0.142E+03 0.000E+00
       176.862936      163.287431      457.444581     1     0     0     0     5   1.560 0.709E+02 0.142E+03 0.000E+00
       183.474187      130.852522      162.114876     1     0     0     0     8   1.560 0.709E+02 0.142E+03 0.000E+00
        44.741458      128.800864      703.380230     1     0     0     0     7   1.560 0.709E+02 0.142E+03 0.000E+00
        95.384801      178.768298      307.048645     1     0     0     0     3   1.560 0.709E+02 0.142E+03 0.000E+00
       197.708149      153.512795      412.983854     1     0     0     0     4   1.560 0.709E+02 0.142E+03 0.000E+00
        46.045884       98.309956      162.773112     1     0     0     0     6   1.560 0.709E+02 0.142E+03 0.000E+00
       159.496410      112.064796      523.750793     1     0     0     0     2   1.560 0.709E+02 0.142E+03 0.000E+00
       136.724402       91.683341      352.370032     2     0     0     0     2   1.960 0.709E-01 0.142E+00 0.840E+02
        77.872638       56.379049      714.499278     1     0     0     0     4   1.560 0.709E+02 0.142E+03 0.000E+00
       185.002199      140.283987      585.947277     4     2     0     0     5   2.474 0.000E+00 0.000E+00 0.675E+02
        75.928682       89.689260      252.711451     1     0     0     0     4   1.560 0.709E+02 0.142E+03 0.000E+00
        68.921858       70.720519      334.871349     1     0     0     0     6   1.560 0.709E+02 0.142E+03 0.000E+00
        46.433289       25.228608      461.158159     3     1     0     0     2   2.248 0.000E+00 0.000E+00 0.406E+01
        68.004428      157.271373      334.589209     1     0     0     0     3   1.560 0.709E+02 0.142E+03 0.000E+00
       163.522197       91.825958      110.570332     1     0     0     0     3   1.560 0.709E+02 0.142E+03 0.000E+00
        85.485268       86.320840      804.527709     1     0     0     0     8   1.560 0.709E+02 0.142E+03 0.000E+00
       189.265712        4.856413      912.287676     1     0     0     0     6   1.560 0.709E+02 0.142E+03 0.000E+00
       126.712286      189.366973      569.602656     1     0     0     0     3   1.560 0.709E+02 0.142E+03 0.000E+00
       110.436374      166.172348      763.193690     1     0     0     0     8   1.560 0.709E+02 0.142E+03 0.000E+00
       120.097072       18.229814      203.330617     1     0     0     0     8   1.560 0.709E+02 0.142E+03 0.000E+00
        17.178784       28.310921     1007.140801     1     0     0     0     2   1.560 0.709E+02 0.142E+03 0.000E+00
       158.599378       96.435114      670.767991     1     0     0     0     2   1.560 0.709E+02 0.142E+03 0.000E+00
        32.513215      183.234351      229.704289     1     0     0     0     1   1.560 0.709E+02 0.142E+03 0.000E+00
       189.778998       49.700009      794.866920     1     0     0     0     5   1.560 0.709E+02 0.142E+03 0.000E+00
        23.158261       19.281906      141.301707     1     0     0     0     1   1.560 0.709E+02 0.142E+03 0.000E+00
       111.799271      183.600685     1141.266726     1     0     0     0     5   1.560 0.709E+02 0.142E+03 0.000E+00
        26.377463       41.597502       27.774944     1     0     0     0     8   1.560 0.709E+02 0.142E+03 0.000E+00
        83.930846       42.925828      434.542347     1     0     0     0     5   1.560 0.709E+02 0.142E+03 0.000E+00
        99.564627       34.609987      421.984154     1     0     0     0     4   1.560 0.709E+02 0.142E+03 0.000E+00
         5.647246      164.830798      629.772911     1     0     0     0     8   1.560 0.709E+02 0.142E+03 0.000E+00
        57.290006       62.700002       50.411139     1     0     0     0     6   1.560 0.709E+02 0.142E+03 0.000E+00
       110.431923      171.657196      503.171161     1     0     0     0     1   1.560 0.709E+02 0.142E+03 0.000E+00
       170.693726      164.686130       71.872296     1     0     0     0     2   1.560 0.709E+02 0.142E+03 0.000E+00
       193.092296       38.605133      128.557307     1     0     0     0     6   1.560 0.709E+02 0.142E+03 0.000E+00
        30.893823      179.047857      114.193510     1     0     0     0     5   1.560 0.709E+02 0.142E+03 0.000E+00
        23.990631       12.665890      307.366904     1     0     0     0     5   1.560 0.709E+02 0.142E+03 0.000E+00
        23.696531       65.928976      319.851428     1     0     0     0     3   1.560 0.709E+02 0.142E+03 0.000E+00
        66.987972       50.912809      650.870201     4     3     0     0     8   2.474 0.000E+00 0.000E+00 0.414E+03