ITEM: TIMESTEP
0
ITEM: NUMBER OF ATOMS
         793
ITEM: BOX BOUNDS pp pp pp
  0.0000000E+00   200.000000000000     
  0.0000000E+00   200.000000000000     
  0.0000000E+00   5000.00000000000     
ITEM: ATOMS x y z f1 f2 f3 f4 orient radius rate_mig rate_rot rate_emit
        36.055232      158.460714      136.909562     8     0     0     0     7   3.120 0.709E-19 0.142E-18 0.128E-03
       170.898369      163.056464      297.043522    11     0     0     0     6   3.470 0.709E-28 0.142E-27 0.290E-07
       121.534667       79.145446      901.900842     1     0     0     0     1   1.560 0.709E+02 0.142E+03 0.000E+00
        11.025964        2.532992      838.731319     1     0     0     0     6   1.560 0.709E+02 0.142E+03 0.000E+00
       196.360778      134.544749     1281.037868     1     0     0     0     8   1.560 0.709E+02 0.142E+03 0.000E+00
       188.757484       27.580332     1028.443065     1     0     0     0     6   1.560 0.709E+02 0.142E+03 0.000E+00
        20.879163      108.344249      883.471290     1     0     0     0     1   1.560 0.709E+02 0.142E+03 0.000E+00
        90.777168       75.842761      535.626477    15     0     0     0     8   3.840 0.709E-40 0.142E-39 0.275E-08
       197.666948       80.736528      489.120152    16     0     0     0     1   3.930 0.709E-43 0.142E-42 0.175E-08
        62.800575       35.942643      728.317694     1     0     0     0     8   1.560 0.709E+02 0.142E+03 0.000E+00
        61.242495      115.785298     1149.125229     1     0     0     0     2   1.560 0.709E+02 0.142E+03 0.000E+00
         0.183798      146.811846      315.854877    15     0     0     0     6   3.840 0.709E-40 0.142E-39 0.275E-08
       197.473397      165.572987      220.150275    13     0     0     0     3   3.660 0.709E-34 0.142E-33 0.784E-08
       150.734745       44.339680      539.575542    12     0     0     0     5   3.570 0.709E-31 0.142E-30 0.146E-07
        87.289589       64.997570      464.838703    14     0     0     0     8   3.760 0.709E-37 0.142E-36 0.453E-08
       135.578691      157.116477     1516.754388     1     0     0     0     7   1.560 0.709E+02 0.142E+03 0.000E+00
         2.511683       69.806819     1018.643411    21     0     0     0     7   4.300 0.709E-58 0.142E-57 0.292E-09
       148.803250      158.556971      607.929591     1     0     0     0     8   1.560 0.709E+02 0.142E+03 0.000E+00
        85.300580       82.718108     1022.528963     1     0     0     0     2   1.560 0.709E+02 0.142E+03 0.000E+00
        28.682362      100.261744       39.360714    18     0     0     0     8   4.080 0.709E-49 0.142E-48 0.788E-09
       146.496027       50.757826       95.220335     8     0     0     0     8   3.120 0.709E-19 0.142E-18 0.128E-03
        66.357026      178.904586      992.488340     1     0     0     0     2   1.560 0.709E+02 0.142E+03 0.000E+00
       135.268365      186.189753      891.688184     1     0     0     0     4   1.560 0.709E+02 0.142E+03 0.000E+00
       171.750180       42.541107      844.039197    10     0     0     0     2   3.360 0.709E-25 0.142E-24 0.633E-07
       117.964686      104.635103      852.611188    26     0     0     0     8   4.620 0.709E-73 0.142E-72 0.814E-10
        64.169159       44.376127       27.088228    12     0     0     0     1   3.570 0.709E-31 0.142E-30 0.146E-07
       134.722009       73.071395      514.555117    18     0     0     0     4   4.080 0.709E-49 0.142E-48 0.788E-09
       127.616861      135.343644     1440.404187     1     0     0     0     2   1.560 0.709E+02 0.142E+03 0.000E+00
       150.604583      147.260190      783.376638     1     0     0     0     4   1.560 0.709E+02 0.142E+03 0.000E+00
        87.650825      157.643269     1145.956528     1     0     0     0     8   1.560 0.709E+02 0.142E+03 0.000E+00
       198.216563        6.365180      681.436777    22     0     0     0     1   4.370 0.709E-61 0.142E-60 0.219E-09
        78.894352        3.348193      685.429993    20     0     0     0     6   4.230 0.709E-55 0.142E-54 0.398E-09
       199.163015      173.442876      465.234410    12     0     0     0     2   3.570 0.709E-31 0.142E-30 0.146E-07
       168.950532       25.846781      425.365814    12     0     0     0     4   3.570 0.709E-31 0.142E-30 0.146E-07
       197.367008      150.246533     1564.981813     1     0     0     0     6   1.560 0.709E+02 0.142E+03 0.000E+00
        82.652366       85.435654      965.282172     1     0     0     0     4   1.560 0.709E+02 0.142E+03 0.000E+00
        93.622029      140.952000      686.133480     1     0     0     0     2   1.560 0.709E+02 0.142E+03 0.000E+00
         3.296645      160.157341     1086.918936     1     0     0     0     7   1.560 0.709E+02 0.142E+03 0.000E+00
       149.344700       29.950587      941.793236     1     0     0     0     5   1.560 0.709E+02 0.142E+03 0.000E+00
       148.202653      198.443104       84.509234    12     0     0     0     7   3.570 0.709E-31 0.142E-30 0.146E-07
       140.199234        4.084596      237.410045    11     0     0     0     2   3.470 0.709E-28 0.142E-27 0.290E-07
        82.656345       51.833674     1210.804414     1     0     0     0     2   1.560 0.709E+02 0.142E+03 0.000E+00
        72.408778       44.672031      517.991661    18     0     0     0     5   4.080 0.709E-49 0.142E-48 0.788E-09
       146.706692      119.683645       51.726415     8     0     0     0     2   3.120 0.709E-19 0.142E-18 0.128E-03
       129.068781       45.942443      366.161557     8     0     0     0     2   3.120 0.709E-19 0.142E-18 0.128E-03
        44.410807       73.776584      869.843735     1     0     0     0     6   1.560 0.709E+02 0.142E+03 0.000E+00
       191.574176       40.031429      981.230693     1     0     0     0     2   1.560 0.709E+02 0.142E+03 0.000E+00
        17.145494       88.319941      474.653497    22     0     0     0     7   4.370 0.709E-61 0.142E-60 0.219E-09
        11.397932      184.207413      856.709115     1     0     0     0     2   1.560 0.709E+02 0.142E+03 0.000E+00
        86.560566      170.355860     1134.061789     1     0     0     0     4   1.560 0.709E+02 0.142E+03 0.000E+00
         8.299522      158.980772     1177.589034     1     0     0     0     8   1.560 0.709E+02 0.142E+03 0.000E+00
       163.667784      146.335190      974.041036    24     0     0     0     3   4.500 0.709E-67 0.142E-66 0.130E-09
        71.636003       65.352601      431.119106    18     0     0     0     7   4.080 0.709E-49 0.142E-48 0.788E-09
       199.817756       21.692307     1366.083452     1     0     0     0     1   1.560 0.709E+02 0.142E+03 0.000E+00
        53.338135      166.090188      341.611804     6     0     0     0     2   2.830 0.709E-13 0.142E-12 0.925E-04
        57.483120       95.859722       70.969911    10     0     0     0     5   3.360 0.709E-25 0.142E-24 0.633E-07
       147.215968      119.026301     1153.327234     1     0     0     0     1   1.560 0.709E+02 0.142E+03 0.000E+00
       158.733123      142.426843       92.670934     9     0     0     0     7   3.240 0.709E-22 0.142E-21 0.157E-06
       199.515600      142.031022     1397.928050     1     0     0     0     8   1.560 0.709E+02 0.142E+03 0.000E+00
        33.949085      189.655045      289.120468     6     0     0     0     5   2.830 0.709E-13 0.142E-12 0.925E-04
         9.012460       94.765443      823.345962     1     0     0     0     1   1.560 0.709E+02 0.142E+03 0.000E+00
       109.737864       32.462979      859.357011     1     0     0     0     5   1.560 0.709E+02 0.142E+03 0.000E+00
       180.931006       41.834169     1183.205179     1     0     0     0     4   1.560 0.709E+02 0.142E+03 0.000E+00
       156.468694       95.568496       37.862730    10     0     0     0     6   3.360 0.709E-25 0.142E-24 0.633E-07
       129.655182       26.490380      103.759805    10     0     0     0     7   3.360 0.709E-25 0.142E-24 0.633E-07
        44.797495       82.311759      853.362481    13     0     0     0     5   3.660 0.709E-34 0.142E-33 0.784E-08
       177.833728        9.911273     1544.341787     1     0     0     0     8   1.560 0.709E+02 0.142E+03 0.000E+00
        23.171388      155.084804       97.864350    17     0     0     0     7   4.010 0.709E-46 0.142E-45 0.116E-08
       135.688527      125.243341     1355.712139     1     0     0     0     4   1.560 0.709E+02 0.142E+03 0.000E+00
       124.942432       53.314844     1123.531170     1     0     0     0     8   1.560 0.709E+02 0.142E+03 0.000E+00
        20.533618       83.983208       73.034931    10     0     0     0     5   3.360 0.709E-25 0.142E-24 0.633E-07
        21.787236      148.157159      189.561989     6     0     0     0     1   2.830 0.709E-13 0.142E-12 0.925E-04
        47.354822       84.449048      158.471204     9     0     0     0     8   3.240 0.709E-22 0.142E-21 0.157E-06
        69.513246       73.557826      895.383690     1     0     0     0     7   1.560 0.709E+02 0.142E+03 0.000E+00
        37.796010      164.756819      163.573743    11     0     0     0     3   3.470 0.709E-28 0.142E-27 0.290E-07
        38.052992      144.469370      277.458803    16     0     0     0     7   3.930 0.709E-43 0.142E-42 0.175E-08
        88.623267      144.174665       88.564805    12     0     0     0     5   3.570 0.709E-31 0.142E-30 0.146E-07
       155.472320      182.582328      629.701769    20     0     0     0     8   4.230 0.709E-55 0.142E-54 0.398E-09
        93.160158        4.619584     1294.217365     1     0     0     0     6   1.560 0.709E+02 0.142E+03 0.000E+00
       180.928504       22.893776      498.095555    14     0     0     0     2   3.760 0.709E-37 0.142E-36 0.453E-08
        11.897631       96.102907      270.102150    14     0     0     0     3   3.760 0.709E-37 0.142E-36 0.453E-08
       184.056901       30.738345     1127.897427     1     0     0     0     4   1.560 0.709E+02 0.142E+03 0.000E+00
       180.836319       56.798138     1019.246564     1     0     0     0     1   1.560 0.709E+02 0.142E+03 0.000E+00
       156.542273      150.372366      189.882206     9     0     0     0     3   3.240 0.709E-22 0.142E-21 0.157E-06
        54.975127       27.033315       91.402026    14     0     0     0     7   3.760 0.709E-37 0.142E-36 0.453E-08
         4.953577       85.559464      984.303999     1     0     0     0     6   1.560 0.709E+02 0.142E+03 0.000E+00
       163.737516      194.092125      700.399427    25     0     0     0     4   4.560 0.709E-70 0.142E-69 0.102E-09
       177.908444       32.443988     1446.448647     1     0     0     0     5   1.560 0.709E+02 0.142E+03 0.000E+00
        78.948477      186.130533      270.538431     9     0     0     0     2   3.240 0.709E-22 0.142E-21 0.157E-06
        93.024411      139.894656      625.214478    18     0     0     0     3   4.080 0.709E-49 0.142E-48 0.788E-09
        85.220227      116.785017      971.520889     1     0     0     0     8   1.560 0.709E+02 0.142E+03 0.000E+00
        58.866710      166.211112      883.699265     1     0     0     0     1   1.560 0.709E+02 0.142E+03 0.000E+00
        33.055306      167.467921      316.464628    11     0     0     0     4   3.470 0.709E-28 0.142E-27 0.290E-07
        21.455098      170.980206      143.003419    13     0     0     0     6   3.660 0.709E-34 0.142E-33 0.784E-08
       147.627412       35.189307      980.551928     1     0     0     0     1   1.560 0.709E+02 0.142E+03 0.000E+00
        52.189601       96.775709      434.766350    15     0     0     0     4   3.840 0.709E-40 0.142E-39 0.275E-08
       196.855819      130.746666      151.344618    13     0     0     0     8   3.660 0.709E-34 0.142E-33 0.784E-08
       177.395291      197.122000     1010.014063     1     0     0     0     6   1.560 0.709E+02 0.142E+03 0.000E+00
        63.585400      127.145171      101.709727    11     0     0     0     8   3.470 0.709E-28 0.142E-27 0.290E-07
        39.249358       51.483542     1218.306922     1     0     0     0     3   1.560 0.709E+02 0.142E+03 0.000E+00
       142.559317      147.372983     1098.473759     1     0     0     0     7   1.560 0.709E+02 0.142E+03 0.000E+00
        92.433881      170.491461      138.245294    13     0     0     0     8   3.660 0.709E-34 0.142E-33 0.784E-08
       107.184592      117.438245     1511.959906     1     0     0     0     7   1.560 0.709E+02 0.142E+03 0.000E+00
       183.138120        4.218344     1194.970149     1     0     0     0     3   1.560 0.709E+02 0.142E+03 0.000E+00
       101.630774      133.600193      274.102567    11     0     0     0     3   3.470 0.709E-28 0.142E-27 0.290E-07
       158.292624       78.586338      415.084022    19     0     0     0     8   4.160 0.709E-52 0.142E-51 0.553E-09
        11.654932      197.889791     1165.178863     1     0     0     0     1   1.560 0.709E+02 0.142E+03 0.000E+00
       145.832974      110.658609      783.296117     1     0     0     0     8   1.560 0.709E+02 0.142E+03 0.000E+00
        48.535916      136.371285      504.700148    19     0     0     0     5   4.160 0.709E-52 0.142E-51 0.553E-09
       152.031086       39.125805      916.879603    18     0     0     0     7   4.080 0.709E-49 0.142E-48 0.788E-09
        11.328927      180.898532     1197.345837     1     0     0     0     4   1.560 0.709E+02 0.142E+03 0.000E+00
        74.953408       16.705855      123.657347     8     0     0     0     3   3.120 0.709E-19 0.142E-18 0.128E-03
        67.825062        8.002551      875.767767     1     0     0     0     2   1.560 0.709E+02 0.142E+03 0.000E+00
       187.568434       38.211364      444.540435     9     0     0     0     1   3.240 0.709E-22 0.142E-21 0.157E-06
        98.385327       30.325449     1052.031056     1     0     0     0     6   1.560 0.709E+02 0.142E+03 0.000E+00
       169.205291      190.061614     1064.802666     1     0     0     0     7   1.560 0.709E+02 0.142E+03 0.000E+00
       167.082795      130.484526      510.113699    10     0     0     0     5   3.360 0.709E-25 0.142E-24 0.633E-07
       149.998066       36.334631     1096.079821     1     0     0     0     6   1.560 0.709E+02 0.142E+03 0.000E+00
        83.620567      197.577567     1092.213318     1     0     0     0     5   1.560 0.709E+02 0.142E+03 0.000E+00
       186.083246      134.479861     1078.716805     1     0     0     0     2   1.560 0.709E+02 0.142E+03 0.000E+00
        53.686581       88.143623      695.932070    19     0     0     0     8   4.160 0.709E-52 0.142E-51 0.553E-09
       134.295371      139.322942      167.019906    11     0     0     0     4   3.470 0.709E-28 0.142E-27 0.290E-07
        77.048260      155.468386      578.055124    14     0     0     0     2   3.760 0.709E-37 0.142E-36 0.453E-08
        74.651841       10.524273      640.671566    20     0     0     0     2   4.230 0.709E-55 0.142E-54 0.398E-09
       180.725043      119.935581     1247.182804     1     0     0     0     4   1.560 0.709E+02 0.142E+03 0.000E+00
        85.266054       55.285151      748.316870     1     0     0     0     2   1.560 0.709E+02 0.142E+03 0.000E+00
        79.525387      166.645840       31.563814     6     0     0     0     6   2.830 0.709E-13 0.142E-12 0.925E-04
        87.022124      152.391788     1109.459882     1     0     0     0     7   1.560 0.709E+02 0.142E+03 0.000E+00
        29.122084       51.887403      654.417343    13     0     0     0     7   3.660 0.709E-34 0.142E-33 0.784E-08
       185.132529       49.686240      739.645076    19     0     0     0     3   4.160 0.709E-52 0.142E-51 0.553E-09
       182.536515      123.660241      154.057776    12     0     0     0     4   3.570 0.709E-31 0.142E-30 0.146E-07
       115.982246      192.469510      202.267744    16     0     0     0     7   3.930 0.709E-43 0.142E-42 0.175E-08
       196.406185       81.005835      556.198413    15     0     0     0     6   3.840 0.709E-40 0.142E-39 0.275E-08
       188.193974      156.159725      960.015473    12     0     0     0     5   3.570 0.709E-31 0.142E-30 0.146E-07
        98.933753       42.714956      792.983528     1     0     0     0     5   1.560 0.709E+02 0.142E+03 0.000E+00
       132.356207       38.733164       49.112737    15     0     0     0     5   3.840 0.709E-40 0.142E-39 0.275E-08
       182.280911      169.713798      305.153337    14     0     0     0     5   3.760 0.709E-37 0.142E-36 0.453E-08
       128.494131       80.588998      861.635863     1     0     0     0     6   1.560 0.709E+02 0.142E+03 0.000E+00
        28.458311      179.023841     1083.452086     1     0     0     0     3   1.560 0.709E+02 0.142E+03 0.000E+00
       157.066830       30.971370      286.115563    11     0     0     0     2   3.470 0.709E-28 0.142E-27 0.290E-07
       111.011221       77.446457      825.405034     1     0     0     0     3   1.560 0.709E+02 0.142E+03 0.000E+00
       124.089656      105.692741     1197.168988     1     0     0     0     2   1.560 0.709E+02 0.142E+03 0.000E+00
         4.254788      135.226066      559.526675    19     0     0     0     7   4.160 0.709E-52 0.142E-51 0.553E-09
        76.200416       95.303656      155.468000    12     0     0     0     6   3.570 0.709E-31 0.142E-30 0.146E-07
       132.044125       35.784163      458.544116    12     0     0     0     4   3.570 0.709E-31 0.142E-30 0.146E-07
       196.991117      139.511153      189.150492    12     0     0     0     2   3.570 0.709E-31 0.142E-30 0.146E-07
       144.360649      126.580752     1039.699732     1     0     0     0     6   1.560 0.709E+02 0.142E+03 0.000E+00
        43.142652       43.690094     1159.199801     1     0     0     0     5   1.560 0.709E+02 0.142E+03 0.000E+00
       119.783027      169.849171      981.645907     1     0     0     0     5   1.560 0.709E+02 0.142E+03 0.000E+00
       120.143739       52.687299      703.389735    21     0     0     0     3   4.300 0.709E-58 0.142E-57 0.292E-09
       144.341793      127.742978      244.927566     9     0     0     0     4   3.240 0.709E-22 0.142E-21 0.157E-06
       171.225499       13.074343      727.661667    18     0     0     0     2   4.080 0.709E-49 0.142E-48 0.788E-09
       186.515580       27.357404      560.185358    22     0     0     0     6   4.370 0.709E-61 0.142E-60 0.219E-09
        46.419925       25.743459      461.306305    10     0     0     0     5   3.360 0.709E-25 0.142E-24 0.633E-07
       124.471473       44.007639      202.775747    17     0     0     0     3   4.010 0.709E-46 0.142E-45 0.116E-08
       167.800373      167.717694       27.241053    11     0     0     0     4   3.470 0.709E-28 0.142E-27 0.290E-07
        36.360304       69.880422      158.509075    10     0     0     0     3   3.360 0.709E-25 0.142E-24 0.633E-07
       159.202704       48.234644     1204.401742     1     0     0     0     1   1.560 0.709E+02 0.142E+03 0.000E+00
       134.770674       31.589511      209.956311    14     0     0     0     1   3.760 0.709E-37 0.142E-36 0.453E-08
       194.772177       91.764610     1161.562351     1     0     0     0     3   1.560 0.709E+02 0.142E+03 0.000E+00
        83.069466       91.154192      385.800169    10     0     0     0     6   3.360 0.709E-25 0.142E-24 0.633E-07
       124.864815       86.471679     1209.210499     1     0     0     0     4   1.560 0.709E+02 0.142E+03 0.000E+00
       194.953378       31.553957      120.838931    11     0     0     0     4   3.470 0.709E-28 0.142E-27 0.290E-07
       125.595387       59.523801     1194.164619     1     0     0     0     1   1.560 0.709E+02 0.142E+03 0.000E+00
       121.505775       77.229141      395.522477    14     0     0     0     6   3.760 0.709E-37 0.142E-36 0.453E-08
       170.568573      124.825156     1080.113976     1     0     0     0     6   1.560 0.709E+02 0.142E+03 0.000E+00
       130.363798        4.167890      380.887033     9     0     0     0     6   3.240 0.709E-22 0.142E-21 0.157E-06
       100.414872       20.019000     1272.950019     1     0     0     0     6   1.560 0.709E+02 0.142E+03 0.000E+00
        75.961490      139.554089     1017.912500     1     0     0     0     7   1.560 0.709E+02 0.142E+03 0.000E+00
         0.791718      165.544742     1140.217247     1     0     0     0     5   1.560 0.709E+02 0.142E+03 0.000E+00
       112.978282       17.809881     1188.423087     1     0     0     0     8   1.560 0.709E+02 0.142E+03 0.000E+00
        43.415983      131.053506     1196.304757     1     0     0     0     3   1.560 0.709E+02 0.142E+03 0.000E+00
       153.394634      110.882309      235.431680     9     0     0     0     6   3.240 0.709E-22 0.142E-21 0.157E-06
       112.081003       20.900170      996.423375     1     0     0     0     6   1.560 0.709E+02 0.142E+03 0.000E+00
       173.919202      110.405202      116.268054    12     0     0     0     6   3.570 0.709E-31 0.142E-30 0.146E-07
        56.912049      130.813068      433.807983    10     0     0     0     2   3.360 0.709E-25 0.142E-24 0.633E-07
       122.847730      134.822810       83.015571    11     0     0     0     7   3.470 0.709E-28 0.142E-27 0.290E-07
       194.970010      180.427665      386.196369    15     0     0     0     7   3.840 0.709E-40 0.142E-39 0.275E-08
       107.695558      155.152968     1153.988174     1     0     0     0     6   1.560 0.709E+02 0.142E+03 0.000E+00
       158.619432       76.161732      107.038533    11     0     0     0     4   3.470 0.709E-28 0.142E-27 0.290E-07
        42.272766      133.189387      981.038419     1     0     0     0     1   1.560 0.709E+02 0.142E+03 0.000E+00
        93.324817       90.267447      912.190127    22     0     0     0     2   4.370 0.709E-61 0.142E-60 0.219E-09
        10.605582       84.411499      697.701822    15     0     0     0     8   3.840 0.709E-40 0.142E-39 0.275E-08
        39.553546       58.691464      282.306919     9     0     0     0     1   3.240 0.709E-22 0.142E-21 0.157E-06
        65.273638       47.718646       48.153904    12     0     0     0     4   3.570 0.709E-31 0.142E-30 0.146E-07
         2.470076        0.330357      180.536418     8     0     0     0     2   3.120 0.709E-19 0.142E-18 0.128E-03
       119.321449      132.583506      491.061640    13     0     0     0     2   3.660 0.709E-34 0.142E-33 0.784E-08
       187.804135       88.098847      320.517775    12     0     0     0     1   3.570 0.709E-31 0.142E-30 0.146E-07
       182.896548      122.509350     1022.966908     1     0     0     0     4   1.560 0.709E+02 0.142E+03 0.000E+00
       140.958463      107.128117     1104.506187     1     0     0     0     3   1.560 0.709E+02 0.142E+03 0.000E+00
        87.167441      168.430487       78.865369     8     0     0     0     6   3.120 0.709E-19 0.142E-18 0.128E-03
       134.531085      107.734137      795.554871     1     0     0     0     3   1.560 0.709E+02 0.142E+03 0.000E+00
        91.487959       27.302404      230.850269     8     0     0     0     3   3.120 0.709E-19 0.142E-18 0.128E-03
       185.653702       33.368032      162.772698     6     0     0     0     7   2.830 0.709E-13 0.142E-12 0.925E-04
         9.968392      150.849465      389.379456    15     0     0     0     2   3.840 0.709E-40 0.142E-39 0.275E-08
        35.881396       15.666470     1219.283443     1     0     0     0     2   1.560 0.709E+02 0.142E+03 0.000E+00
       182.973458       80.026475      160.941458    13     0     0     0     2   3.660 0.709E-34 0.142E-33 0.784E-08
       152.072785       68.217921      618.151799    21     0     0     0     1   4.300 0.709E-58 0.142E-57 0.292E-09
        24.010178       12.065779       94.375933    16     0     0     0     7   3.930 0.709E-43 0.142E-42 0.175E-08
         7.590627      197.893148      962.939024     1     0     0     0     4   1.560 0.709E+02 0.142E+03 0.000E+00
        31.778038      198.332649      849.403104     1     0     0     0     1   1.560 0.709E+02 0.142E+03 0.000E+00
       107.792539       50.178326      514.988442     9     0     0     0     1   3.240 0.709E-22 0.142E-21 0.157E-06
        80.481443      138.492262      756.771274    15     1     0     0     8   3.843 0.000E+00 0.000E+00 0.180E+03
       192.681945       49.246727       64.439787    14     0     0     0     2   3.760 0.709E-37 0.142E-36 0.453E-08
       163.811121       40.794576      360.037234    10     0     0     0     5   3.360 0.709E-25 0.142E-24 0.633E-07
        82.272020      163.191199      829.924100     1     0     0     0     5   1.560 0.709E+02 0.142E+03 0.000E+00
       167.599592       13.913029      255.831142     7     0     0     0     4   2.980 0.709E-16 0.142E-15 0.189E-02
        18.190717      148.746673      336.968478     9     0     0     0     7   3.240 0.709E-22 0.142E-21 0.157E-06
       137.306791      153.715217     1008.067031     1     0     0     0     6   1.560 0.709E+02 0.142E+03 0.000E+00
       122.759776       38.810617      784.100854    22     0     0     0     1   4.370 0.709E-61 0.142E-60 0.219E-09
       162.161567      155.867035      537.058254    21     0     0     0     3   4.300 0.709E-58 0.142E-57 0.292E-09
        59.832135      196.933926      405.922872    17     0     0     0     6   4.010 0.709E-46 0.142E-45 0.116E-08
       178.969616      144.942592      850.020728     1     0     0     0     1   1.560 0.709E+02 0.142E+03 0.000E+00
        39.807883      131.272971       69.574621     8     0     0     0     2   3.120 0.709E-19 0.142E-18 0.128E-03
        47.748468       39.196308      841.683175     1     0     0     0     7   1.560 0.709E+02 0.142E+03 0.000E+00
        83.036206      144.939453      599.540396    15     0     0     0     2   3.840 0.709E-40 0.142E-39 0.275E-08
        81.757875       40.622861      619.654994    10     0     0     0     8   3.360 0.709E-25 0.142E-24 0.633E-07
       102.889100      196.654020      797.768194     1     0     0     0     3   1.560 0.709E+02 0.142E+03 0.000E+00
         2.155535      103.605566     1141.581064     1     0     0     0     6   1.560 0.709E+02 0.142E+03 0.000E+00
       164.185033       78.302066       14.814077     1     0     0     0     7   1.560 0.709E+02 0.142E+03 0.000E+00
        20.166810      162.986807      558.626618    11     0     0     0     1   3.470 0.709E-28 0.142E-27 0.290E-07
       168.348813      146.239162      987.451284     1     0     0     0     3   1.560 0.709E+02 0.142E+03 0.000E+00
       184.491451      157.138314      320.519125    12     0     0     0     2   3.570 0.709E-31 0.142E-30 0.146E-07
        37.395648       99.975636      587.599734    12     0     0     0     4   3.570 0.709E-31 0.142E-30 0.146E-07
       177.206795       85.612934      720.588544     1     0     0     0     3   1.560 0.709E+02 0.142E+03 0.000E+00
        56.832226      153.638337      814.662329     9     0     0     0     2   3.240 0.709E-22 0.142E-21 0.157E-06
        67.039214       19.488600      235.468423    16     0     0     0     3   3.930 0.709E-43 0.142E-42 0.175E-08
       125.857638        8.095674     1140.727084     1     0     0     0     8   1.560 0.709E+02 0.142E+03 0.000E+00
        49.351751      199.911892      323.751254     8     0     0     0     5   3.120 0.709E-19 0.142E-18 0.128E-03
        19.957695       86.141278      700.383148    11     0     0     0     8   3.470 0.709E-28 0.142E-27 0.290E-07
        86.876918       14.260792     1052.246538     1     0     0     0     5   1.560 0.709E+02 0.142E+03 0.000E+00
        51.053699       95.080533      590.963479    27     0     0     0     4   4.680 0.709E-76 0.142E-75 0.655E-10
        87.302005      152.429467       92.463803    11     0     0     0     8   3.470 0.709E-28 0.142E-27 0.290E-07
        94.656289      139.871803      191.245201    24     0     0     0     2   4.500 0.709E-67 0.142E-66 0.130E-09
       184.232835       49.968997      802.456528     1     0     0     0     6   1.560 0.709E+02 0.142E+03 0.000E+00
        27.590335      140.398140     1224.312589     1     0     0     0     8   1.560 0.709E+02 0.142E+03 0.000E+00
        36.589862      133.937598     1271.935297     1     0     0     0     7   1.560 0.709E+02 0.142E+03 0.000E+00
       170.538439       26.649930     1232.491374     1     0     0     0     8   1.560 0.709E+02 0.142E+03 0.000E+00
       142.314409      191.032037       42.048257    14     0     0     0     8   3.760 0.709E-37 0.142E-36 0.453E-08
        22.258180       97.809548      340.450692    13     1     0     0     4   3.664 0.000E+00 0.000E+00 0.403E+01
       147.426216       49.278494     1106.679747     1     0     0     0     1   1.560 0.709E+02 0.142E+03 0.000E+00
       164.514540        0.054582      184.467838    18     0     0     0     6   4.080 0.709E-49 0.142E-48 0.788E-09
        52.792115       70.347759     1615.318450     1     0     0     0     4   1.560 0.709E+02 0.142E+03 0.000E+00
        62.596376      142.325975      174.362461    17     0     0     0     8   4.010 0.709E-46 0.142E-45 0.116E-08
        12.559774      154.010476      632.343671     1     0     0     0     2   1.560 0.709E+02 0.142E+03 0.000E+00
       162.106260       26.007547      264.802995    12     0     0     0     6   3.570 0.709E-31 0.142E-30 0.146E-07
       182.023309       37.186968      230.353054     6     0     0     0     3   2.830 0.709E-13 0.142E-12 0.925E-04
       119.343147       98.027318       54.225113     9     0     0     0     5   3.240 0.709E-22 0.142E-21 0.157E-06
       122.525432       82.015777      280.043208    15     0     0     0     5   3.840 0.709E-40 0.142E-39 0.275E-08
        25.925694      193.733509     1030.449654     1     0     0     0     3   1.560 0.709E+02 0.142E+03 0.000E+00
       182.002903       85.805687      774.034694    22     0     0     0     8   4.370 0.709E-61 0.142E-60 0.219E-09