ITEM: TIMESTEP
0
ITEM: NUMBER OF ATOMS
        4640
ITEM: BOX BOUNDS pp pp pp
  0.0000000E+00   200.000000000000     
  0.0000000E+00   200.000000000000     
  0.0000000E+00   5000.00000000000     
ITEM: ATOMS x y z f1 f2 f3 f4 orient radius rate_mig rate_rot rate_emit
        81.607799      180.333803      607.536737     1     0     0     0     3   1.560 0.709E+02 0.142E+03 0.000E+00
       192.238391      134.684415      162.879653     1     0     0     0     3   1.560 0.709E+02 0.142E+03 0.000E+00
       144.595847      179.325002       55.262192     1     0     0     0     8   1.560 0.709E+02 0.142E+03 0.000E+00
       143.237759      155.187213      152.530964     1     0     0     0     8   1.560 0.709E+02 0.142E+03 0.000E+00
       159.376031      120.224178      521.608370     1     0     0     0     3   1.560 0.709E+02 0.142E+03 0.000E+00
       133.793791      112.639331       92.454074     1     0     0     0     2   1.560 0.709E+02 0.142E+03 0.000E+00
        74.128111       39.655699     1174.464493     1     0     0     0     6   1.560 0.709E+02 0.142E+03 0.000E+00
       198.041300       37.249619       54.596996     1     0     0     0     4   1.560 0.709E+02 0.142E+03 0.000E+00
       195.838167      174.292184      561.183918     1     0     0     0     3   1.560 0.709E+02 0.142E+03 0.000E+00
        72.308709      125.084211     1100.790654     1     0     0     0     6   1.560 0.709E+02 0.142E+03 0.000E+00
        85.029012      137.201575      113.731651     1     0     0     0     5   1.560 0.709E+02 0.142E+03 0.000E+00
       112.594852       89.448402      296.230667     1     0     0     0     7   1.560 0.709E+02 0.142E+03 0.000E+00
       199.489161      126.288036      591.271041     1     0     0     0     3   1.560 0.709E+02 0.142E+03 0.000E+00
       130.042881       85.854054      405.774606     1     0     0     0     7   1.560 0.709E+02 0.142E+03 0.000E+00
       122.265027      156.458891      371.101125     1     0     0     0     2   1.560 0.709E+02 0.142E+03 0.000E+00
       126.961703       46.250609     1065.155301     1     0     0     0     5   1.560 0.709E+02 0.142E+03 0.000E+00
       179.719894       24.170868      499.131353     3     2     0     0     7   2.248 0.000E+00 0.000E+00 0.303E+03
       154.942627      102.693983       23.303621     1     0     0     0     3   1.560 0.709E+02 0.142E+03 0.000E+00
       179.793722       59.372822      599.454270     1     0     0     0     2   1.560 0.709E+02 0.142E+03 0.000E+00
       121.400127       52.375995      538.300719     1     0     0     0     3   1.560 0.709E+02 0.142E+03 0.000E+00
       163.754893      163.578257     1183.427808     1     0     0     0     6   1.560 0.709E+02 0.142E+03 0.000E+00
        32.909192      117.919706      682.488036     3     2     0     0     3   2.248 0.000E+00 0.000E+00 0.303E+03
       198.126103       87.175044      857.159337     1     0     0     0     2   1.560 0.709E+02 0.142E+03 0.000E+00
       122.581956       32.338280     1029.878892     1     0     0     0     3   1.560 0.709E+02 0.142E+03 0.000E+00
       149.997419       92.620826      245.275003     1     0     0     0     5   1.560 0.709E+02 0.142E+03 0.000E+00
         2.174979      154.119566      192.210649     1     0     0     0     1   1.560 0.709E+02 0.142E+03 0.000E+00
       157.714799      164.680132      850.612428     1     0     0     0     6   1.560 0.709E+02 0.142E+03 0.000E+00
        68.166227      192.106737      574.835426     1     0     0     0     1   1.560 0.709E+02 0.142E+03 0.000E+00
        99.930552      194.386029      501.464764     1     0     0     0     1   1.560 0.709E+02 0.142E+03 0.000E+00
       194.517504      138.660089     1040.253675     1     0     0     0     3   1.560 0.709E+02 0.142E+03 0.000E+00
        64.299848      153.556279      202.838542     1     0     0     0     2   1.560 0.709E+02 0.142E+03 0.000E+00
        80.247339      131.445497      860.498667     1     0     0     0     6   1.560 0.709E+02 0.142E+03 0.000E+00
       171.126603      102.707750      828.109048     1     0     0     0     4   1.560 0.709E+02 0.142E+03 0.000E+00
        77.291708      177.505764      659.952056     1     0     0     0     6   1.560 0.709E+02 0.142E+03 0.000E+00
       139.650428       94.633455      528.858933     4     2     0     0     5   2.474 0.000E+00 0.000E+00 0.675E+02
        94.735309       38.002069       45.167146     4     0     0     0     6   2.470 0.709E-07 0.142E-06 0.983E-02
        48.803447      131.969539      410.423585     1     0     0     0     1   1.560 0.709E+02 0.142E+03 0.000E+00
        65.626556      185.225867      436.404908     1     0     0     0     6   1.560 0.709E+02 0.142E+03 0.000E+00
        47.396827        6.714863      870.293463     1     0     0     0     4   1.560 0.709E+02 0.142E+03 0.000E+00
       136.447065        5.467369       30.489353     1     0     0     0     7   1.560 0.709E+02 0.142E+03 0.000E+00
        39.341902       33.435626      348.822975     1     0     0     0     7   1.560 0.709E+02 0.142E+03 0.000E+00
       159.590181        2.248674      425.455788     1     0     0     0     5   1.560 0.709E+02 0.142E+03 0.000E+00
        72.759150       16.443315      838.170996     1     0     0     0     2   1.560 0.709E+02 0.142E+03 0.000E+00
        78.676443      189.436033      742.663677     1     0     0     0     5   1.560 0.709E+02 0.142E+03 0.000E+00
        67.398619      134.107259      615.522401     1     0     0     0     3   1.560 0.709E+02 0.142E+03 0.000E+00
        55.082943      167.590399       34.836778     1     0     0     0     6   1.560 0.709E+02 0.142E+03 0.000E+00
        39.529534      162.249489       46.767767     1     0     0     0     5   1.560 0.709E+02 0.142E+03 0.000E+00
       152.712207       69.648538      617.795500     3     3     0     0     7   2.248 0.000E+00 0.000E+00 0.441E+03
       133.570257      109.865820      426.953101     1     0     0     0     7   1.560 0.709E+02 0.142E+03 0.000E+00
       130.901174      111.725070      161.021362     3     2     0     0     7   2.248 0.000E+00 0.000E+00 0.303E+03
        79.899293      191.601172       34.329943     1     0     0     0     1   1.560 0.709E+02 0.142E+03 0.000E+00
        66.268227      112.078117      239.722682     3     1     0     0     1   2.248 0.000E+00 0.000E+00 0.406E+01
       122.719528       90.890294      114.364593     1     0     0     0     7   1.560 0.709E+02 0.142E+03 0.000E+00
       117.950210       39.676446      868.375559     1     0     0     0     6   1.560 0.709E+02 0.142E+03 0.000E+00
        73.617727       80.904467      826.182092     1     0     0     0     2   1.560 0.709E+02 0.142E+03 0.000E+00
        61.709606       91.092046       94.893920     1     0     0     0     6   1.560 0.709E+02 0.142E+03 0.000E+00
       113.909631       60.861977       40.540150     1     0     0     0     1   1.560 0.709E+02 0.142E+03 0.000E+00
        44.957731      150.579668      283.657835     1     0     0     0     8   1.560 0.709E+02 0.142E+03 0.000E+00
        14.038633       22.002950      274.557512     1     1     0     0     6   1.558 0.000E+00 0.000E+00 0.356E+05
       191.106312      146.450354       87.923362     1     0     0     0     3   1.560 0.709E+02 0.142E+03 0.000E+00
       122.243563       42.562098      474.447231     4     4     0     0     6   2.474 0.000E+00 0.000E+00 0.558E+03
       108.625125      163.974099      356.477998     1     0     0     0     2   1.560 0.709E+02 0.142E+03 0.000E+00
       140.861954      174.534981      631.066470     1     0     0     0     7   1.560 0.709E+02 0.142E+03 0.000E+00
       127.800339        0.944385      110.447658     1     0     0     0     3   1.560 0.709E+02 0.142E+03 0.000E+00
       159.589168       66.829373      129.660124     1     0     0     0     4   1.560 0.709E+02 0.142E+03 0.000E+00
        60.412553      191.762595      293.945429     5     2     0     0     8   2.665 0.000E+00 0.000E+00 0.668E+02
       140.065365      144.537259      123.550569     1     0     0     0     5   1.560 0.709E+02 0.142E+03 0.000E+00
       156.233729      194.390844      533.945113     1     0     0     0     2   1.560 0.709E+02 0.142E+03 0.000E+00
        92.306859       44.745263      240.407397     1     0     0     0     6   1.560 0.709E+02 0.142E+03 0.000E+00
       144.883625       11.999847      629.368506     1     0     0     0     6   1.560 0.709E+02 0.142E+03 0.000E+00
        40.996845       57.867009      732.103201     1     0     0     0     2   1.560 0.709E+02 0.142E+03 0.000E+00
       166.376144      165.956360      136.813724     1     0     0     0     2   1.560 0.709E+02 0.142E+03 0.000E+00
        82.128936       81.587335      976.401038     1     0     0     0     1   1.560 0.709E+02 0.142E+03 0.000E+00
       110.960546       72.546046      584.023895     1     0     0     0     1   1.560 0.709E+02 0.142E+03 0.000E+00
        44.725315       43.335432      779.359355     1     0     0     0     3   1.560 0.709E+02 0.142E+03 0.000E+00
        65.023908      198.583231      855.831531     1     0     0     0     2   1.560 0.709E+02 0.142E+03 0.000E+00
       165.006818       34.981764      372.780533     1     0     0     0     8   1.560 0.709E+02 0.142E+03 0.000E+00
       101.321509       90.617635       68.968359     1     0     0     0     1   1.560 0.709E+02 0.142E+03 0.000E+00
        97.926864      178.321132      591.105712     1     0     0     0     4   1.560 0.709E+02 0.142E+03 0.000E+00
       173.984112       46.114828      702.831889     1     0     0     0     1   1.560 0.709E+02 0.142E+03 0.000E+00
         5.204379      103.483108      716.961600     1     0     0     0     2   1.560 0.709E+02 0.142E+03 0.000E+00
       191.790693       17.682456      184.083269     1     0     0     0     4   1.560 0.709E+02 0.142E+03 0.000E+00
        45.553165      169.959786      883.021208     1     0     0     0     2   1.560 0.709E+02 0.142E+03 0.000E+00
        78.881835       73.817354      210.446273     4     5     0     0     2   2.474 0.000E+00 0.000E+00 0.756E+03
       172.207555       71.065378       61.443593     1     0     0     0     4   1.560 0.709E+02 0.142E+03 0.000E+00
        37.098020       15.397402      767.457293     1     0     0     0     6   1.560 0.709E+02 0.142E+03 0.000E+00
        98.917368        3.115408       35.508886     1     0     0     0     3   1.560 0.709E+02 0.142E+03 0.000E+00
       182.344321       78.390659      524.824160     3     3     0     0     5   2.248 0.000E+00 0.000E+00 0.441E+03
        70.831015      145.125037      607.883754     1     0     0     0     6   1.560 0.709E+02 0.142E+03 0.000E+00
        38.703695       87.215888      867.546680     1     0     0     0     3   1.560 0.709E+02 0.142E+03 0.000E+00
        51.103208       92.908313      701.176148     1     0     0     0     5   1.560 0.709E+02 0.142E+03 0.000E+00
        81.438480      176.456979     1149.984444     1     0     0     0     5   1.560 0.709E+02 0.142E+03 0.000E+00
       168.915877       39.285574      481.769850     1     0     0     0     4   1.560 0.709E+02 0.142E+03 0.000E+00
       136.716783       65.024709      348.796501     1     0     0     0     3   1.560 0.709E+02 0.142E+03 0.000E+00
       120.493230       24.100524      491.200072     1     0     0     0     1   1.560 0.709E+02 0.142E+03 0.000E+00
       186.447544      140.453292      876.480656     1     0     0     0     6   1.560 0.709E+02 0.142E+03 0.000E+00
       188.550634      118.295154      373.671127     1     0     0     0     4   1.560 0.709E+02 0.142E+03 0.000E+00
       131.937457      164.162258      495.114672     1     0     0     0     1   1.560 0.709E+02 0.142E+03 0.000E+00
        82.768629       21.499620      926.100026     1     0     0     0     4   1.560 0.709E+02 0.142E+03 0.000E+00
       103.795857      174.357029      556.655135     1     0     0     0     1   1.560 0.709E+02 0.142E+03 0.000E+00
        63.888896       83.713097      203.370428     1     0     0     0     6   1.560 0.709E+02 0.142E+03 0.000E+00
        89.963050        1.656920      416.677853     1     0     0     0     7   1.560 0.709E+02 0.142E+03 0.000E+00
       165.513836       33.102493      332.352025     1     0     0     0     8   1.560 0.709E+02 0.142E+03 0.000E+00
        28.800095      100.977899       39.280064     7     0     0     0     8   2.980 0.709E-16 0.142E-15 0.189E-02
       136.803827      115.838120      382.071744     3     3     0     0     8   2.248 0.000E+00 0.000E+00 0.441E+03
       115.039449      100.542361      586.122321     1     0     0     0     2   1.560 0.709E+02 0.142E+03 0.000E+00
        36.835220      134.869686      436.640836     1     0     0     0     2   1.560 0.709E+02 0.142E+03 0.000E+00
        71.266852      126.080366      215.285846     1     0     0     0     1   1.560 0.709E+02 0.142E+03 0.000E+00
       108.926028       84.929638      790.939890     1     0     0     0     3   1.560 0.709E+02 0.142E+03 0.000E+00
        23.808207      116.624722      222.742675     1     0     0     0     2   1.560 0.709E+02 0.142E+03 0.000E+00
        37.054495       39.299056      284.791310     1     0     0     0     3   1.560 0.709E+02 0.142E+03 0.000E+00
       176.794796       64.086395      839.691997     1     0     0     0     1   1.560 0.709E+02 0.142E+03 0.000E+00
        59.528955      146.542752      263.242959     1     0     0     0     6   1.560 0.709E+02 0.142E+03 0.000E+00
       125.171071       87.649969      366.645993     1     0     0     0     8   1.560 0.709E+02 0.142E+03 0.000E+00
        69.822183       97.224074       80.879526     1     0     0     0     2   1.560 0.709E+02 0.142E+03 0.000E+00
       177.861245       54.708628       51.518703     1     0     0     0     8   1.560 0.709E+02 0.142E+03 0.000E+00
        21.828390      189.390209     1401.904256     1     0     0     0     8   1.560 0.709E+02 0.142E+03 0.000E+00
       109.289568       94.275419      346.491494     1     0     0     0     5   1.560 0.709E+02 0.142E+03 0.000E+00
       142.627770      131.774266      591.488229     4     5     0     0     1   2.474 0.000E+00 0.000E+00 0.756E+03
        85.933303      196.980921      165.034827     1     0     0     0     1   1.560 0.709E+02 0.142E+03 0.000E+00
       154.396565       22.204732      739.499879     1     0     0     0     7   1.560 0.709E+02 0.142E+03 0.000E+00
       149.875974      195.699617      409.411281     1     0     0     0     1   1.560 0.709E+02 0.142E+03 0.000E+00
        51.349042       97.365935      433.115195     4     5     0     0     8   2.474 0.000E+00 0.000E+00 0.756E+03
        76.428613      119.873401      550.314317     1     0     0     0     6   1.560 0.709E+02 0.142E+03 0.000E+00
        73.506719       79.200911      893.164309     1     0     0     0     2   1.560 0.709E+02 0.142E+03 0.000E+00
        51.508805      124.575759      498.163256     1     0     0     0     7   1.560 0.709E+02 0.142E+03 0.000E+00
        38.501691      122.457110      785.167647     1     0     0     0     6   1.560 0.709E+02 0.142E+03 0.000E+00
        56.019804      178.500821      156.830648     1     0     0     0     5   1.560 0.709E+02 0.142E+03 0.000E+00
       109.368120      116.019367      268.859703     1     0     0     0     6   1.560 0.709E+02 0.142E+03 0.000E+00
       116.947549      183.385996      882.686919     1     0     0     0     8   1.560 0.709E+02 0.142E+03 0.000E+00
        75.231590       55.021408     1082.106309     1     0     0     0     5   1.560 0.709E+02 0.142E+03 0.000E+00
        12.825584      119.922428      356.731936     3     4     0     0     3   2.248 0.000E+00 0.000E+00 0.424E+04
       190.466476       45.911816      661.501129     1     0     0     0     6   1.560 0.709E+02 0.142E+03 0.000E+00
        31.645410       96.807548      389.864872     1     0     0     0     4   1.560 0.709E+02 0.142E+03 0.000E+00
        21.735064       84.924721      427.559539     2     1     0     0     8   1.963 0.000E+00 0.000E+00 0.123E+04
       117.084496       43.554252      261.608382     1     0     0     0     1   1.560 0.709E+02 0.142E+03 0.000E+00
        34.053706        2.209593      371.113119     1     0     0     0     4   1.560 0.709E+02 0.142E+03 0.000E+00
        79.864734      111.645910      227.727856     1     0     0     0     6   1.560 0.709E+02 0.142E+03 0.000E+00
       118.802564       98.569830       53.676458     4     1     0     0     1   2.474 0.000E+00 0.000E+00 0.412E+02
        39.007379       29.727433      134.449608     1     0     0     0     3   1.560 0.709E+02 0.142E+03 0.000E+00
        40.113229      130.777280      189.229651     1     0     0     0     6   1.560 0.709E+02 0.142E+03 0.000E+00
       195.411910      151.200813       75.780531     1     0     0     0     4   1.560 0.709E+02 0.142E+03 0.000E+00
       146.501097       44.936684      581.174295     1     0     0     0     5   1.560 0.709E+02 0.142E+03 0.000E+00
       147.129728        7.424899      364.751700     2     0     0     0     6   1.960 0.709E-01 0.142E+00 0.840E+02
       186.968379        3.358792       20.228509     1     0     0     0     2   1.560 0.709E+02 0.142E+03 0.000E+00
        18.379505       52.080200      490.239586     1     0     0     0     7   1.560 0.709E+02 0.142E+03 0.000E+00
        88.775672      115.670037      184.197255     1     0     0     0     8   1.560 0.709E+02 0.142E+03 0.000E+00
       196.504627      105.849386       17.926512     1     0     0     0     2   1.560 0.709E+02 0.142E+03 0.000E+00
        55.329809       74.176106      384.176890     1     0     0     0     4   1.560 0.709E+02 0.142E+03 0.000E+00
         9.444716      129.984195      532.222241     1     0     0     0     7   1.560 0.709E+02 0.142E+03 0.000E+00
       164.161995      112.100562      352.012986     1     0     0     0     7   1.560 0.709E+02 0.142E+03 0.000E+00
        12.019872      133.083227      291.158213     1     0     0     0     5   1.560 0.709E+02 0.142E+03 0.000E+00
       125.855083      145.882355      160.190823     1     0     0     0     2   1.560 0.709E+02 0.142E+03 0.000E+00
        73.085611       28.000673      826.896694     1     0     0     0     2   1.560 0.709E+02 0.142E+03 0.000E+00
       198.568314      173.341109      464.539762     4     6     0     0     1   2.474 0.000E+00 0.000E+00 0.105E+04
        42.120368        6.986792      155.645700     1     0     0     0     7   1.560 0.709E+02 0.142E+03 0.000E+00
       141.212223       79.358808       62.625236     1     0     0     0     7   1.560 0.709E+02 0.142E+03 0.000E+00
       118.421785      146.874706      537.735177     1     0     0     0     3   1.560 0.709E+02 0.142E+03 0.000E+00
       172.524924       87.527343     1007.717205     1     0     0     0     4   1.560 0.709E+02 0.142E+03 0.000E+00
       169.346233       36.531424     1365.000071     1     0     0     0     4   1.560 0.709E+02 0.142E+03 0.000E+00
       169.149035       39.342027      281.480288     1     0     0     0     6   1.560 0.709E+02 0.142E+03 0.000E+00
        90.336036      183.334495     1110.826596     1     0     0     0     8   1.560 0.709E+02 0.142E+03 0.000E+00
       137.601682       51.597593      365.747591     1     0     0     0     6   1.560 0.709E+02 0.142E+03 0.000E+00
       169.481786      180.201809      148.133075     1     0     0     0     4   1.560 0.709E+02 0.142E+03 0.000E+00
        20.373058       29.372861      201.559907     1     0     0     0     6   1.560 0.709E+02 0.142E+03 0.000E+00
        74.475333        1.456870      183.547909     1     0     0     0     1   1.560 0.709E+02 0.142E+03 0.000E+00
       173.406931      124.035228      340.825632     4     5     0     0     2   2.474 0.000E+00 0.000E+00 0.756E+03
        79.568378      104.642448      861.088460     1     0     0     0     4   1.560 0.709E+02 0.142E+03 0.000E+00
        33.873726       11.443216      605.988219     1     0     0     0     1   1.560 0.709E+02 0.142E+03 0.000E+00
       169.338150       34.487287     1002.076374     1     0     0     0     2   1.560 0.709E+02 0.142E+03 0.000E+00
        52.591501       25.151102       23.642596     1     0     0     0     3   1.560 0.709E+02 0.142E+03 0.000E+00
        76.360036      120.273513      682.530209     3     3     0     0     6   2.248 0.000E+00 0.000E+00 0.441E+03
        73.208093       83.564889      527.572000     1     0     0     0     4   1.560 0.709E+02 0.142E+03 0.000E+00
        16.617968      107.285203       43.624173     1     0     0     0     7   1.560 0.709E+02 0.142E+03 0.000E+00
       168.388802        1.242052       62.896667     1     0     0     0     2   1.560 0.709E+02 0.142E+03 0.000E+00
       133.015826      149.992496       53.196333     1     0     0     0     2   1.560 0.709E+02 0.142E+03 0.000E+00
       132.059886       35.700275      459.302465     3     5     0     0     7   2.248 0.000E+00 0.000E+00 0.633E+04
       176.054491       96.154031      256.463922     1     0     0     0     4   1.560 0.709E+02 0.142E+03 0.000E+00
        51.786910       62.302486      422.709474     1     0     0     0     7   1.560 0.709E+02 0.142E+03 0.000E+00
        99.294348      157.378406      513.512023     1     0     0     0     7   1.560 0.709E+02 0.142E+03 0.000E+00
       112.758225      164.299228      574.971732     1     0     0     0     1   1.560 0.709E+02 0.142E+03 0.000E+00
        28.770641      137.782697       33.589872     1     0     0     0     3   1.560 0.709E+02 0.142E+03 0.000E+00
        63.456515      120.580382      758.307999     1     0     0     0     4   1.560 0.709E+02 0.142E+03 0.000E+00
        55.169798        0.616493       38.470858     1     0     0     0     4   1.560 0.709E+02 0.142E+03 0.000E+00
        70.827117       70.416897      307.174811     1     0     0     0     6   1.560 0.709E+02 0.142E+03 0.000E+00
        71.388307       54.838800      257.834987     1     0     0     0     2   1.560 0.709E+02 0.142E+03 0.000E+00
       166.208449      134.020983       21.404606     1     0     0     0     3   1.560 0.709E+02 0.142E+03 0.000E+00
        31.418416       24.918699      547.053853     1     0     0     0     4   1.560 0.709E+02 0.142E+03 0.000E+00
       135.381449      178.724230      179.643418     1     0     0     0     2   1.560 0.709E+02 0.142E+03 0.000E+00
        70.213620      129.629474      579.324837     1     0     0     0     5   1.560 0.709E+02 0.142E+03 0.000E+00
       118.129436      113.158611      196.223381     1     0     0     0     1   1.560 0.709E+02 0.142E+03 0.000E+00
       141.304479      179.843442      130.012358     1     0     0     0     7   1.560 0.709E+02 0.142E+03 0.000E+00
        92.449610      154.674541       98.510166     1     0     0     0     6   1.560 0.709E+02 0.142E+03 0.000E+00
       120.624248      101.257633       94.110646     1     0     0     0     1   1.560 0.709E+02 0.142E+03 0.000E+00
         0.897012      113.788395      398.467272     1     0     0     0     4   1.560 0.709E+02 0.142E+03 0.000E+00
       117.235654       30.568479      468.267778     1     0     0     0     6   1.560 0.709E+02 0.142E+03 0.000E+00
        55.183999       65.840868      910.429639     1     0     0     0     7   1.560 0.709E+02 0.142E+03 0.000E+00
        26.210490        1.698631      644.396127     2     0     0     0     4   1.960 0.709E-01 0.142E+00 0.840E+02
       173.803501      109.598591     1110.455686     2     1     0     0     3   1.963 0.000E+00 0.000E+00 0.123E+04
        45.296982        3.363033      284.987220     4     4     0     0     1   2.474 0.000E+00 0.000E+00 0.558E+03
        73.724452        4.700698      433.625923     1     0     0     0     3   1.560 0.709E+02 0.142E+03 0.000E+00
       126.860686      154.401457      149.064418     2     2     0     0     8   1.963 0.000E+00 0.000E+00 0.215E+04
        74.089373      131.875353      134.414347     1     0     0     0     1   1.560 0.709E+02 0.142E+03 0.000E+00
       120.620008       21.838631      587.228673     3     3     0     0     3   2.248 0.000E+00 0.000E+00 0.441E+03
        94.145733      101.827269      202.135330     1     0     0     0     1   1.560 0.709E+02 0.142E+03 0.000E+00
       189.831205      189.510043      293.863731     1     0     0     0     3   1.560 0.709E+02 0.142E+03 0.000E+00
        12.050283       56.172834       21.519152     1     0     0     0     8   1.560 0.709E+02 0.142E+03 0.000E+00
       195.336545      153.308959      440.593598     1     0     0     0     2   1.560 0.709E+02 0.142E+03 0.000E+00
        46.546538        1.111680     1161.761532     1     0     0     0     1   1.560 0.709E+02 0.142E+03 0.000E+00
       136.734784      176.627650      439.660664     1     0     0     0     1   1.560 0.709E+02 0.142E+03 0.000E+00
        97.240460      176.559242      342.209674     1     0     0     0     6   1.560 0.709E+02 0.142E+03 0.000E+00
       134.789169       98.625026      569.932809     1     0     0     0     2   1.560 0.709E+02 0.142E+03 0.000E+00
        28.448058      124.882039       96.837397     1     0     0     0     7   1.560 0.709E+02 0.142E+03 0.000E+00
       171.926698       90.186876      871.732306     1     0     0     0     1   1.560 0.709E+02 0.142E+03 0.000E+00
       184.985959      107.327649      321.768118     1     0     0     0     6   1.560 0.709E+02 0.142E+03 0.000E+00
       104.452561       62.059639      744.392070     1     0     0     0     5   1.560 0.709E+02 0.142E+03 0.000E+00
        80.373525       97.194427      119.398030     1     0     0     0     6   1.560 0.709E+02 0.142E+03 0.000E+00
       143.747954       68.600400      125.078838     1     0     0     0     1   1.560 0.709E+02 0.142E+03 0.000E+00
       126.376109       89.794883      747.026604     1     0     0     0     5   1.560 0.709E+02 0.142E+03 0.000E+00
        81.062134      169.809421      171.396888     1     0     0     0     3   1.560 0.709E+02 0.142E+03 0.000E+00
       148.094530      111.824506       44.171692     1     0     0     0     3   1.560 0.709E+02 0.142E+03 0.000E+00
       136.548200      134.318355      393.302117     1     0     0     0     4   1.560 0.709E+02 0.142E+03 0.000E+00
       120.474053      147.409711       17.696540     3     1     0     0     3   2.248 0.000E+00 0.000E+00 0.406E+01
       191.852128      198.314756      638.744874     1     0     0     0     6   1.560 0.709E+02 0.142E+03 0.000E+00
       167.547706       75.383303      562.230850     1     0     0     0     5   1.560 0.709E+02 0.142E+03 0.000E+00
         0.026814      189.631177       25.352263     1     0     0     0     5   1.560 0.709E+02 0.142E+03 0.000E+00
        31.548402       93.841852      266.888200     1     0     0     0     6   1.560 0.709E+02 0.142E+03 0.000E+00
         4.567622      102.982598      455.486720     1     0     0     0     8   1.560 0.709E+02 0.142E+03 0.000E+00
        30.119740      132.434176      122.602676     1     0     0     0     4   1.560 0.709E+02 0.142E+03 0.000E+00
       134.209022      127.059902     1005.318027     1     0     0     0     8   1.560 0.709E+02 0.142E+03 0.000E+00
       197.884602      144.913026      500.538759     1     0     0     0     2   1.560 0.709E+02 0.142E+03 0.000E+00
       171.139483       29.520805      993.944742     1     0     0     0     6   1.560 0.709E+02 0.142E+03 0.000E+00
       119.902303      107.896874      878.170260     1     0     0     0     8   1.560 0.709E+02 0.142E+03 0.000E+00
       180.666834       40.884005      537.332393     1     0     0     0     1   1.560 0.709E+02 0.142E+03 0.000E+00
       198.184766       64.601756      934.887809     1     0     0     0     4   1.560 0.709E+02 0.142E+03 0.000E+00
       104.780596       45.650817      981.462998     1     0     0     0     3   1.560 0.709E+02 0.142E+03 0.000E+00
       199.248559       38.616756      815.761159     1     0     0     0     6   1.560 0.709E+02 0.142E+03 0.000E+00
        93.137414      169.306087      424.715500     1     0     0     0     3   1.560 0.709E+02 0.142E+03 0.000E+00
       123.910733       43.145190      687.125333     1     0     0     0     7   1.560 0.709E+02 0.142E+03 0.000E+00
        37.142821      194.018758      436.381724     1     0     0     0     2   1.560 0.709E+02 0.142E+03 0.000E+00
       175.977477       39.872169     1252.502457     1     0     0     0     6   1.560 0.709E+02 0.142E+03 0.000E+00
       140.849147       26.290512      647.099480     1     0     0     0     2   1.560 0.709E+02 0.142E+03 0.000E+00
         6.647700      123.493380      413.714391     1     0     0     0     6   1.560 0.709E+02 0.142E+03 0.000E+00
        91.249587      138.265066      655.275412     1     0     0     0     1   1.560 0.709E+02 0.142E+03 0.000E+00
        88.808616       90.580373      678.939612     1     0     0     0     6   1.560 0.709E+02 0.142E+03 0.000E+00
        68.765989       23.491889       81.849683     1     0     0     0     2   1.560 0.709E+02 0.142E+03 0.000E+00
        91.870150      131.830609      483.142658     1     0     0     0     8   1.560 0.709E+02 0.142E+03 0.000E+00
       122.126195       19.513134      761.737134     1     0     0     0     6   1.560 0.709E+02 0.142E+03 0.000E+00
       150.586293       84.014485      690.347667     1     0     0     0     7   1.560 0.709E+02 0.142E+03 0.000E+00
        42.645412      122.196044       31.484678     1     0     0     0     4   1.560 0.709E+02 0.142E+03 0.000E+00
        13.308531      107.952671     1085.772874     1     0     0     0     6   1.560 0.709E+02 0.142E+03 0.000E+00