ITEM: TIMESTEP
0
ITEM: NUMBER OF ATOMS
        1878
ITEM: BOX BOUNDS pp pp pp
  0.0000000E+00   200.000000000000     
  0.0000000E+00   200.000000000000     
  0.0000000E+00   5000.00000000000     
ITEM: ATOMS x y z f1 f2 f3 f4 orient radius rate_mig rate_rot rate_emit
        74.026086       28.352242      703.129806     1     0     0     0     3   1.560 0.709E+02 0.142E+03 0.000E+00
       182.321538      107.695553      257.531847     8     0     0     0     1   3.120 0.709E-19 0.142E-18 0.128E-03
       157.066830       30.971370      286.115563    11     0     0     0     3   3.470 0.709E-28 0.142E-27 0.290E-07
       116.093904       28.390559       28.726266     9     0     0     0     3   3.240 0.709E-22 0.142E-21 0.157E-06
       171.636990      103.659083      547.618112     1     0     0     0     6   1.560 0.709E+02 0.142E+03 0.000E+00
        13.844866       53.071363       10.988686     8     0     0     0     2   3.120 0.709E-19 0.142E-18 0.128E-03
       162.335182      157.148655      646.892869    20     4     0     0     5   4.230 0.000E+00 0.000E+00 0.105E+03
       170.244909      162.203963      863.623936     1     0     0     0     1   1.560 0.709E+02 0.142E+03 0.000E+00
       143.827656       86.721341      852.069373     1     0     0     0     2   1.560 0.709E+02 0.142E+03 0.000E+00
       113.363153      106.085536      646.828019     1     0     0     0     1   1.560 0.709E+02 0.142E+03 0.000E+00
         2.470076        0.330357      180.536418     8     0     0     0     3   3.120 0.709E-19 0.142E-18 0.128E-03
       192.623600      137.715175      811.107635     1     0     0     0     4   1.560 0.709E+02 0.142E+03 0.000E+00
        48.618324      137.773479      729.154636     1     0     0     0     5   1.560 0.709E+02 0.142E+03 0.000E+00
       151.282920       37.196996      691.497260     1     0     0     0     2   1.560 0.709E+02 0.142E+03 0.000E+00
       156.111248       56.885896      237.943235     7     0     0     0     4   2.980 0.709E-16 0.142E-15 0.189E-02
         1.048956       80.234285      269.694799     1     0     0     0     2   1.560 0.709E+02 0.142E+03 0.000E+00
       199.531825       12.297746      561.558091     1     0     0     0     2   1.560 0.709E+02 0.142E+03 0.000E+00
       186.451567       49.141357      786.569751     1     0     0     0     4   1.560 0.709E+02 0.142E+03 0.000E+00
        58.523225       98.664613      274.279120    17     0     0     0     4   4.010 0.709E-46 0.142E-45 0.116E-08
         1.600078       41.155391      792.476227     1     0     0     0     8   1.560 0.709E+02 0.142E+03 0.000E+00
        56.022942       88.366158     1037.669193     1     0     0     0     6   1.560 0.709E+02 0.142E+03 0.000E+00
       138.869554       94.849283      528.955566     8     0     0     0     3   3.120 0.709E-19 0.142E-18 0.128E-03
        65.550869       78.923165      866.224267     1     0     0     0     7   1.560 0.709E+02 0.142E+03 0.000E+00
        81.183786      187.332813      749.755806     1     0     0     0     3   1.560 0.709E+02 0.142E+03 0.000E+00
        60.317021       23.608299      303.386975    15     0     0     0     4   3.840 0.709E-40 0.142E-39 0.275E-08
       153.799011       86.222105      202.578013     1     0     0     0     5   1.560 0.709E+02 0.142E+03 0.000E+00
        91.242323      103.185768      131.290292    10     1     0     0     1   3.357 0.000E+00 0.000E+00 0.410E+02
        25.570833      177.435402      583.036194     8     1     0     0     8   3.117 0.000E+00 0.000E+00 0.410E+02
        72.545660      161.220113      964.460276     1     0     0     0     3   1.560 0.709E+02 0.142E+03 0.000E+00
       113.221175      198.413304       75.562189    18     0     0     0     1   4.080 0.709E-49 0.142E-48 0.788E-09
       147.004538      181.236922      271.259416     9     1     0     0     2   3.241 0.000E+00 0.000E+00 0.410E+02
         4.791600       32.810122      340.933112     1     0     0     0     5   1.560 0.709E+02 0.142E+03 0.000E+00
       193.589857      127.304295      279.276289     1     0     0     0     1   1.560 0.709E+02 0.142E+03 0.000E+00
       163.946274      187.602899      624.716897     1     0     0     0     6   1.560 0.709E+02 0.142E+03 0.000E+00
        67.979867       30.531609      702.349651     1     0     0     0     5   1.560 0.709E+02 0.142E+03 0.000E+00
       194.530366       39.688405      213.805671     7     0     0     0     5   2.980 0.709E-16 0.142E-15 0.189E-02
       139.588082      159.254710      387.824431     7     1     0     0     3   2.981 0.000E+00 0.000E+00 0.411E+02
        48.478996      182.199005      278.566066     1     0     0     0     5   1.560 0.709E+02 0.142E+03 0.000E+00
        61.743839      162.057232      230.750724     1     0     0     0     4   1.560 0.709E+02 0.142E+03 0.000E+00
       106.527603       14.709622     1093.180613     1     0     0     0     2   1.560 0.709E+02 0.142E+03 0.000E+00
       124.270766       43.845164      643.992441     1     0     0     0     1   1.560 0.709E+02 0.142E+03 0.000E+00
       112.538911       21.801751      521.047330     1     0     0     0     8   1.560 0.709E+02 0.142E+03 0.000E+00
        92.617644      126.023112      444.030248     1     0     0     0     1   1.560 0.709E+02 0.142E+03 0.000E+00
        11.264655      110.446572      423.463700     1     0     0     0     4   1.560 0.709E+02 0.142E+03 0.000E+00
        65.450848       76.113269      953.931378     1     0     0     0     4   1.560 0.709E+02 0.142E+03 0.000E+00
       189.422508      141.545331      790.301290     1     0     0     0     4   1.560 0.709E+02 0.142E+03 0.000E+00
       130.132497      122.763302      116.647719     1     0     0     0     2   1.560 0.709E+02 0.142E+03 0.000E+00
       163.983347      146.870565      974.398657     8     0     0     0     8   3.120 0.709E-19 0.142E-18 0.128E-03
       159.238388       51.331647     1027.368703     1     0     0     0     1   1.560 0.709E+02 0.142E+03 0.000E+00
         6.634799       20.574716      319.401105    14     0     0     0     2   3.760 0.709E-37 0.142E-36 0.453E-08
       185.519586       83.619158       99.297485    12     1     0     0     8   3.568 0.000E+00 0.000E+00 0.410E+02
        94.753875      198.361798      605.746183     1     0     0     0     2   1.560 0.709E+02 0.142E+03 0.000E+00
       124.232121      177.448654      340.108332     6     0     0     0     7   2.830 0.709E-13 0.142E-12 0.925E-04
        40.970956       93.594302      823.136548     1     0     0     0     4   1.560 0.709E+02 0.142E+03 0.000E+00
       146.893458      183.241191      994.278987     1     0     0     0     8   1.560 0.709E+02 0.142E+03 0.000E+00
        56.949276      130.910691      433.412234     8     0     0     0     1   3.120 0.709E-19 0.142E-18 0.128E-03
       103.511240       82.371539      247.200588     1     0     0     0     7   1.560 0.709E+02 0.142E+03 0.000E+00
       153.776374      169.382505      630.395807     1     0     0     0     1   1.560 0.709E+02 0.142E+03 0.000E+00
       192.657516      122.536518      570.731585     1     0     0     0     7   1.560 0.709E+02 0.142E+03 0.000E+00
       176.382734      124.621574      706.057812     1     0     0     0     5   1.560 0.709E+02 0.142E+03 0.000E+00
         2.499222      185.663215      567.639034     1     0     0     0     2   1.560 0.709E+02 0.142E+03 0.000E+00
        51.723761       12.211261      696.395840     1     0     0     0     7   1.560 0.709E+02 0.142E+03 0.000E+00
        39.144514      132.068177     1639.057073     1     0     0     0     3   1.560 0.709E+02 0.142E+03 0.000E+00
       161.986935       46.421788      452.098628     1     0     0     0     1   1.560 0.709E+02 0.142E+03 0.000E+00
        62.152876       23.513691      380.857419     1     0     0     0     4   1.560 0.709E+02 0.142E+03 0.000E+00
       188.913621      199.160488       97.647970     1     0     0     0     8   1.560 0.709E+02 0.142E+03 0.000E+00
       199.351248       71.641069      245.602178     1     0     0     0     5   1.560 0.709E+02 0.142E+03 0.000E+00
        87.640737       43.838369      130.776680     1     0     0     0     1   1.560 0.709E+02 0.142E+03 0.000E+00
       156.559258      111.393235      216.626665    17     0     0     0     2   4.010 0.709E-46 0.142E-45 0.116E-08
       128.516725      130.423611      371.019966     1     0     0     0     6   1.560 0.709E+02 0.142E+03 0.000E+00
        15.291560       77.580138      890.080743     1     0     0     0     2   1.560 0.709E+02 0.142E+03 0.000E+00
       146.621010       67.194783      853.260797     1     0     0     0     2   1.560 0.709E+02 0.142E+03 0.000E+00
       189.411991      103.193355     1107.078591     1     0     0     0     4   1.560 0.709E+02 0.142E+03 0.000E+00
        33.417338      103.921947      629.813486     1     0     0     0     1   1.560 0.709E+02 0.142E+03 0.000E+00
        28.856465       83.544429      456.057731     1     0     0     0     1   1.560 0.709E+02 0.142E+03 0.000E+00
        74.071561       55.044584      622.974181     1     0     0     0     7   1.560 0.709E+02 0.142E+03 0.000E+00
        39.937894       31.273406     1077.220102     1     0     0     0     2   1.560 0.709E+02 0.142E+03 0.000E+00
        20.673466      181.305393      572.959240     1     0     0     0     7   1.560 0.709E+02 0.142E+03 0.000E+00
       153.806057       90.111527      669.644890     1     0     0     0     8   1.560 0.709E+02 0.142E+03 0.000E+00
        63.090554      191.846843      715.885865     1     0     0     0     3   1.560 0.709E+02 0.142E+03 0.000E+00
       107.159451      188.387753      872.720751     1     0     0     0     8   1.560 0.709E+02 0.142E+03 0.000E+00
       141.940161       30.474515      553.436957     1     0     0     0     6   1.560 0.709E+02 0.142E+03 0.000E+00
       124.829882      183.035003     1132.321936     1     0     0     0     8   1.560 0.709E+02 0.142E+03 0.000E+00
        30.073487       68.064655      781.939959     1     0     0     0     8   1.560 0.709E+02 0.142E+03 0.000E+00
        89.210935      114.487534      939.430451     1     0     0     0     2   1.560 0.709E+02 0.142E+03 0.000E+00
       179.871412        8.611661     1027.863029     1     0     0     0     1   1.560 0.709E+02 0.142E+03 0.000E+00
       187.830945       26.597042      594.661390     9     0     0     0     5   3.240 0.709E-22 0.142E-21 0.157E-06
        93.841905      125.331442      532.772120     1     0     0     0     7   1.560 0.709E+02 0.142E+03 0.000E+00
        15.418212       96.207919      482.219191     1     0     0     0     1   1.560 0.709E+02 0.142E+03 0.000E+00
       197.661767       48.473844      902.695690     1     0     0     0     4   1.560 0.709E+02 0.142E+03 0.000E+00
       132.978248      104.277424      300.428031     7     0     0     0     8   2.980 0.709E-16 0.142E-15 0.189E-02
        31.505247       35.424883      646.280849     1     0     0     0     3   1.560 0.709E+02 0.142E+03 0.000E+00
       141.512605       69.517557      556.911032     1     0     0     0     7   1.560 0.709E+02 0.142E+03 0.000E+00
        65.811897      126.789634      590.608836     1     0     0     0     4   1.560 0.709E+02 0.142E+03 0.000E+00
       126.963194        3.044815      494.209116     1     0     0     0     7   1.560 0.709E+02 0.142E+03 0.000E+00
         3.183738       87.720472      301.069663     8     0     0     0     4   3.120 0.709E-19 0.142E-18 0.128E-03
        59.628204       73.416414      400.008303     4     0     0     0     7   2.470 0.709E-07 0.142E-06 0.983E-02
        45.095253       63.656291     1444.695134     1     0     0     0     6   1.560 0.709E+02 0.142E+03 0.000E+00
        13.530512      136.623011     1207.477934     1     0     0     0     6   1.560 0.709E+02 0.142E+03 0.000E+00
       145.736998      113.569985      686.421208     1     0     0     0     2   1.560 0.709E+02 0.142E+03 0.000E+00
       190.513452      176.905748     1116.687046     1     0     0     0     1   1.560 0.709E+02 0.142E+03 0.000E+00
       162.336646       79.004458      928.043511     1     0     0     0     4   1.560 0.709E+02 0.142E+03 0.000E+00
        51.204633        6.159008     1174.157281     1     0     0     0     5   1.560 0.709E+02 0.142E+03 0.000E+00
        10.546996       84.635024      731.194668     1     0     0     0     8   1.560 0.709E+02 0.142E+03 0.000E+00
        47.273584      168.483055      725.996484     1     0     0     0     6   1.560 0.709E+02 0.142E+03 0.000E+00
        48.196168       82.361525      654.954453     1     0     0     0     5   1.560 0.709E+02 0.142E+03 0.000E+00
       157.189965       96.660585      669.863648     1     0     0     0     7   1.560 0.709E+02 0.142E+03 0.000E+00
       116.825721      115.062167      869.976045     1     0     0     0     8   1.560 0.709E+02 0.142E+03 0.000E+00
        30.748045       95.768263      533.477516     1     0     0     0     3   1.560 0.709E+02 0.142E+03 0.000E+00
        62.604080      165.198390      368.818683     1     0     0     0     1   1.560 0.709E+02 0.142E+03 0.000E+00
       155.689709       46.624566      244.327479     1     0     0     0     2   1.560 0.709E+02 0.142E+03 0.000E+00
       149.226653       24.779635      233.816689     9     0     0     0     7   3.240 0.709E-22 0.142E-21 0.157E-06
        62.134811        3.110322      739.402050     1     0     0     0     5   1.560 0.709E+02 0.142E+03 0.000E+00
       167.976636       56.147542      730.958079     1     0     0     0     8   1.560 0.709E+02 0.142E+03 0.000E+00
       103.767041      107.364428      598.803402     1     0     0     0     4   1.560 0.709E+02 0.142E+03 0.000E+00
        83.882880       42.980292      974.350954     1     0     0     0     2   1.560 0.709E+02 0.142E+03 0.000E+00
       197.933202      106.614833      761.531443     1     0     0     0     5   1.560 0.709E+02 0.142E+03 0.000E+00
        78.381461      154.042297      617.456243     1     0     0     0     6   1.560 0.709E+02 0.142E+03 0.000E+00
        16.787617       66.296862       72.458717    10     0     0     0     5   3.360 0.709E-25 0.142E-24 0.633E-07
        12.763835      102.876840     1216.533048     1     0     0     0     6   1.560 0.709E+02 0.142E+03 0.000E+00
        79.676282       73.051879      210.383172    20     0     0     0     6   4.230 0.709E-55 0.142E-54 0.398E-09
       187.711357       88.370204      320.271239    11     0     0     0     4   3.470 0.709E-28 0.142E-27 0.290E-07
        19.339497      150.244601      902.843111     1     0     0     0     4   1.560 0.709E+02 0.142E+03 0.000E+00
        78.806937      133.918246      370.541140     1     0     0     0     4   1.560 0.709E+02 0.142E+03 0.000E+00
       125.482713       84.380922      974.297460     1     0     0     0     8   1.560 0.709E+02 0.142E+03 0.000E+00
        69.733866      100.736291      580.255174     1     0     0     0     3   1.560 0.709E+02 0.142E+03 0.000E+00
       192.043342       18.113482      775.802397     1     0     0     0     2   1.560 0.709E+02 0.142E+03 0.000E+00
        28.212753      102.925739      634.987340     1     0     0     0     8   1.560 0.709E+02 0.142E+03 0.000E+00
       113.466017       70.701270     1169.399905     1     0     0     0     7   1.560 0.709E+02 0.142E+03 0.000E+00
       178.772005       70.777617      803.074429     1     0     0     0     8   1.560 0.709E+02 0.142E+03 0.000E+00
        99.985526       42.807968      552.009650     8     0     0     0     6   3.120 0.709E-19 0.142E-18 0.128E-03
       122.011297      186.061425       87.832890    10     1     0     0     4   3.357 0.000E+00 0.000E+00 0.410E+02
        18.488795      115.079284      661.030512     1     0     0     0     8   1.560 0.709E+02 0.142E+03 0.000E+00
        44.887787       35.234605      984.665179     1     0     0     0     5   1.560 0.709E+02 0.142E+03 0.000E+00
       149.624781      191.961167      754.232523     1     0     0     0     2   1.560 0.709E+02 0.142E+03 0.000E+00
       110.082109       64.589729     1162.850847     1     0     0     0     7   1.560 0.709E+02 0.142E+03 0.000E+00
        35.857738      179.071802      845.110070     1     0     0     0     2   1.560 0.709E+02 0.142E+03 0.000E+00
        58.487605      198.702774      218.865639    11     0     0     0     5   3.470 0.709E-28 0.142E-27 0.290E-07
        30.748466       30.615877      717.141650     1     0     0     0     5   1.560 0.709E+02 0.142E+03 0.000E+00
       186.729239      111.785872      997.240373     1     0     0     0     5   1.560 0.709E+02 0.142E+03 0.000E+00
       136.043573       51.103144      837.173548     1     0     0     0     3   1.560 0.709E+02 0.142E+03 0.000E+00
       100.257863      140.895451     1075.750243     1     0     0     0     8   1.560 0.709E+02 0.142E+03 0.000E+00
        36.482695       36.204613      857.239332     1     0     0     0     8   1.560 0.709E+02 0.142E+03 0.000E+00
       125.035197      143.131860      791.745885     1     0     0     0     2   1.560 0.709E+02 0.142E+03 0.000E+00
       161.665987      168.891485      231.884852     1     0     0     0     2   1.560 0.709E+02 0.142E+03 0.000E+00
       106.211750        7.092372      305.953072     1     0     0     0     4   1.560 0.709E+02 0.142E+03 0.000E+00
        72.404245       44.952243      517.227609    12     2     0     0     8   3.568 0.000E+00 0.000E+00 0.655E+02
       159.053500       69.830128       31.437147     9     0     0     0     7   3.240 0.709E-22 0.142E-21 0.157E-06
        33.387390      149.487332      706.100271     1     0     0     0     8   1.560 0.709E+02 0.142E+03 0.000E+00
       144.462215      147.457239      984.362909     1     0     0     0     5   1.560 0.709E+02 0.142E+03 0.000E+00
       117.923218      104.414555      852.487093    13     1     0     0     3   3.664 0.000E+00 0.000E+00 0.403E+01
       136.928531      137.725133      414.792282     1     0     0     0     2   1.560 0.709E+02 0.142E+03 0.000E+00
        49.351751      199.911892      323.751254     8     0     0     0     5   3.120 0.709E-19 0.142E-18 0.128E-03
        24.818711       69.335573      441.558335     1     0     0     0     4   1.560 0.709E+02 0.142E+03 0.000E+00
       194.942997       13.842474        8.725081     5     0     0     0     4   2.660 0.709E-10 0.142E-09 0.347E-02
        88.031163      106.880504      644.546799     1     0     0     0     3   1.560 0.709E+02 0.142E+03 0.000E+00
        52.351945       35.438393      568.810506     1     0     0     0     5   1.560 0.709E+02 0.142E+03 0.000E+00
        25.133660       34.020841      670.369827     1     0     0     0     5   1.560 0.709E+02 0.142E+03 0.000E+00
       184.085526      115.684776      494.576071     1     0     0     0     5   1.560 0.709E+02 0.142E+03 0.000E+00
        20.703314      135.782669      935.858424     1     0     0     0     1   1.560 0.709E+02 0.142E+03 0.000E+00
       124.363476       36.641604      631.557200     1     0     0     0     3   1.560 0.709E+02 0.142E+03 0.000E+00
       110.423122      145.939038      916.956849     1     0     0     0     3   1.560 0.709E+02 0.142E+03 0.000E+00
        46.228688       45.662041      848.166739     1     0     0     0     8   1.560 0.709E+02 0.142E+03 0.000E+00
       158.506789       96.538059     1071.951602     1     0     0     0     4   1.560 0.709E+02 0.142E+03 0.000E+00
        53.837437      107.337932      401.020357    10     0     0     0     2   3.360 0.709E-25 0.142E-24 0.633E-07
       184.889317      104.656382      199.926266     1     0     0     0     1   1.560 0.709E+02 0.142E+03 0.000E+00
       144.519819       42.900367      637.537600     1     0     0     0     3   1.560 0.709E+02 0.142E+03 0.000E+00
        33.497617      185.148410      626.769044    14     0     0     0     8   3.760 0.709E-37 0.142E-36 0.453E-08
       175.189858      135.051764      487.698994     1     0     0     0     1   1.560 0.709E+02 0.142E+03 0.000E+00
       150.431248       69.198939     1030.726972     1     0     0     0     6   1.560 0.709E+02 0.142E+03 0.000E+00
        23.783304      104.033116      105.557456     1     0     0     0     1   1.560 0.709E+02 0.142E+03 0.000E+00
        17.359659       88.533231      474.059746    18     1     0     0     7   4.084 0.000E+00 0.000E+00 0.409E+02
       158.886003       76.843148      107.066541     9     0     0     0     4   3.240 0.709E-22 0.142E-21 0.157E-06
       153.455668      111.111857      235.726187     8     0     0     0     6   3.120 0.709E-19 0.142E-18 0.128E-03
        37.519690      180.985841      812.108069    11     0     0     0     2   3.470 0.709E-28 0.142E-27 0.290E-07
        68.754743      189.789822      683.418080     1     0     0     0     1   1.560 0.709E+02 0.142E+03 0.000E+00
        29.094753      135.561647      133.338506     7     0     0     0     7   2.980 0.709E-16 0.142E-15 0.189E-02
        23.049142      154.876423       97.754874    16     0     0     0     6   3.930 0.709E-43 0.142E-42 0.175E-08
       156.150993       15.155423     1123.174103     1     0     0     0     4   1.560 0.709E+02 0.142E+03 0.000E+00
       164.346555       90.103631      233.059912     1     0     0     0     3   1.560 0.709E+02 0.142E+03 0.000E+00
       121.878283      115.394612      637.666259     1     0     0     0     3   1.560 0.709E+02 0.142E+03 0.000E+00
       164.604204      124.103879     1098.262478     1     0     0     0     8   1.560 0.709E+02 0.142E+03 0.000E+00
        92.606295       50.628893     1010.064054     1     0     0     0     4   1.560 0.709E+02 0.142E+03 0.000E+00
        33.354569       83.906839      818.082020     1     0     0     0     6   1.560 0.709E+02 0.142E+03 0.000E+00
       173.390440       97.655699      802.309178     1     0     0     0     2   1.560 0.709E+02 0.142E+03 0.000E+00
         0.657935       71.527935      385.815468     1     0     0     0     4   1.560 0.709E+02 0.142E+03 0.000E+00
         5.545140       14.653202       22.317900    10     1     0     0     1   3.357 0.000E+00 0.000E+00 0.410E+02
       147.215481      183.120767      318.522665     1     0     0     0     4   1.560 0.709E+02 0.142E+03 0.000E+00
       158.500054      115.692597      304.376611     1     0     0     0     3   1.560 0.709E+02 0.142E+03 0.000E+00
        11.218736      134.919482      511.582796     1     0     0     0     8   1.560 0.709E+02 0.142E+03 0.000E+00
       191.745541      106.613219       41.279793    12     0     0     0     8   3.570 0.709E-31 0.142E-30 0.146E-07
       137.255574       38.189052      852.994875     1     0     0     0     4   1.560 0.709E+02 0.142E+03 0.000E+00
        10.409715       85.032080      698.392021     7     1     0     0     1   2.981 0.000E+00 0.000E+00 0.411E+02
       170.676272        6.630966      733.296705     1     0     0     0     5   1.560 0.709E+02 0.142E+03 0.000E+00
       198.653686       54.034748      729.391992     1     0     0     0     7   1.560 0.709E+02 0.142E+03 0.000E+00
       105.665071        5.374119      574.864832     1     0     0     0     5   1.560 0.709E+02 0.142E+03 0.000E+00
        99.432239      147.794075      172.761400     1     0     0     0     8   1.560 0.709E+02 0.142E+03 0.000E+00
        79.018852      135.176163      335.394304     1     0     0     0     7   1.560 0.709E+02 0.142E+03 0.000E+00
        36.065153      162.189313      491.893149     1     0     0     0     6   1.560 0.709E+02 0.142E+03 0.000E+00
        97.390043        1.604016      567.400186     1     0     0     0     7   1.560 0.709E+02 0.142E+03 0.000E+00
        96.728698       18.746989      514.090296     1     0     0     0     7   1.560 0.709E+02 0.142E+03 0.000E+00
       186.764374       70.134794      381.954540     1     0     0     0     2   1.560 0.709E+02 0.142E+03 0.000E+00
       108.094035       42.413803      645.317935     1     0     0     0     4   1.560 0.709E+02 0.142E+03 0.000E+00
       167.293555       62.039261      757.549195     1     0     0     0     8   1.560 0.709E+02 0.142E+03 0.000E+00
       116.290714      104.509027      658.716976     1     0     0     0     4   1.560 0.709E+02 0.142E+03 0.000E+00
        54.695062       58.922944     1077.202805     1     0     0     0     2   1.560 0.709E+02 0.142E+03 0.000E+00
       102.449538       75.250128      372.569874     1     0     0     0     7   1.560 0.709E+02 0.142E+03 0.000E+00
       155.582384       82.054550      500.359587     8     0     0     0     2   3.120 0.709E-19 0.142E-18 0.128E-03
       100.629254       74.049743      863.428677     1     0     0     0     2   1.560 0.709E+02 0.142E+03 0.000E+00
       138.459970       26.932232      306.705784     1     0     0     0     6   1.560 0.709E+02 0.142E+03 0.000E+00
        90.503674      105.855193     1090.196388     1     0     0     0     6   1.560 0.709E+02 0.142E+03 0.000E+00
       108.067722       69.563362      796.216772     6     0     0     0     6   2.830 0.709E-13 0.142E-12 0.925E-04
        66.983871      110.686304      239.836064     7     0     0     0     8   2.980 0.709E-16 0.142E-15 0.189E-02
        53.561657      111.488838       89.877365     7     0     0     0     6   2.980 0.709E-16 0.142E-15 0.189E-02
        37.740912      166.507633      569.836200     1     0     0     0     4   1.560 0.709E+02 0.142E+03 0.000E+00
       198.409025       61.838760      470.118817     1     0     0     0     1   1.560 0.709E+02 0.142E+03 0.000E+00
       172.046242      163.567780      845.996855     1     0     0     0     3   1.560 0.709E+02 0.142E+03 0.000E+00
        16.156983      147.267816     1119.464540     1     0     0     0     6   1.560 0.709E+02 0.142E+03 0.000E+00
        78.005218      183.157072      213.472464     5     0     0     0     7   2.660 0.709E-10 0.142E-09 0.347E-02
       195.730151       36.734124      129.425157     7     0     0     0     3   2.980 0.709E-16 0.142E-15 0.189E-02
        15.191800        2.379126      919.262294     1     0     0     0     6   1.560 0.709E+02 0.142E+03 0.000E+00
        12.736752      110.763919      812.536951     1     0     0     0     6   1.560 0.709E+02 0.142E+03 0.000E+00
        34.690012      176.904197      954.376344     1     0     0     0     3   1.560 0.709E+02 0.142E+03 0.000E+00
       193.199607      183.180044      509.420354     1     0     0     0     1   1.560 0.709E+02 0.142E+03 0.000E+00
        56.196626      171.332537      819.768083     1     0     0     0     5   1.560 0.709E+02 0.142E+03 0.000E+00
       188.482043       45.537880      529.728959     1     0     0     0     8   1.560 0.709E+02 0.142E+03 0.000E+00
        24.351349       58.412451      387.310191     8     0     0     0     7   3.120 0.709E-19 0.142E-18 0.128E-03
        96.253396      114.697243      660.544598     1     0     0     0     5   1.560 0.709E+02 0.142E+03 0.000E+00
       101.920498      178.131958      925.502180     1     0     0     0     4   1.560 0.709E+02 0.142E+03 0.000E+00
       166.226656      105.787414      833.342833     1     0     0     0     7   1.560 0.709E+02 0.142E+03 0.000E+00
        24.605375       98.071190      246.432212     1     0     0     0     7   1.560 0.709E+02 0.142E+03 0.000E+00
        36.403952       23.866824      590.119291     1     0     0     0     2   1.560 0.709E+02 0.142E+03 0.000E+00
        74.356071      132.638512      849.952760     1     0     0     0     3   1.560 0.709E+02 0.142E+03 0.000E+00
        42.833403       50.211969     1307.389792     1     0     0     0     2   1.560 0.709E+02 0.142E+03 0.000E+00
        45.279713      136.818906      492.747185     1     0     0     0     5   1.560 0.709E+02 0.142E+03 0.000E+00
         7.104471      102.611642      472.829023     1     0     0     0     2   1.560 0.709E+02 0.142E+03 0.000E+00
       192.739612      135.830498      620.882753    13     2     0     0     2   3.664 0.000E+00 0.000E+00 0.655E+02
       150.507605      151.483737      719.535626     1     0     0     0     6   1.560 0.709E+02 0.142E+03 0.000E+00
       185.165735       32.608343      949.192771     1     0     0     0     3   1.560 0.709E+02 0.142E+03 0.000E+00
        25.066827      136.742331      502.862684     1     0     0     0     2   1.560 0.709E+02 0.142E+03 0.000E+00
       125.701471       90.929979      980.846518     1     0     0     0     3   1.560 0.709E+02 0.142E+03 0.000E+00
        91.835148       62.993474     1052.417186     1     0     0     0     6   1.560 0.709E+02 0.142E+03 0.000E+00
       121.545989      149.700044      396.950414     1     0     0     0     7   1.560 0.709E+02 0.142E+03 0.000E+00
        15.217705       58.154367     1019.139383     1     0     0     0     7   1.560 0.709E+02 0.142E+03 0.000E+00
        79.913831      168.683773      759.316429     1     0     0     0     7   1.560 0.709E+02 0.142E+03 0.000E+00
       108.015624      101.375312      780.440373     1     0     0     0     2   1.560 0.709E+02 0.142E+03 0.000E+00
        35.404570      141.018794     1145.021084     1     0     0     0     1   1.560 0.709E+02 0.142E+03 0.000E+00
       138.720068      190.709325     1036.988819     7     1     0     0     8   2.981 0.000E+00 0.000E+00 0.411E+02
         8.934002      185.847948      347.915650     1     0     0     0     4   1.560 0.709E+02 0.142E+03 0.000E+00
       183.243248      114.833248      641.904629     1     0     0     0     3   1.560 0.709E+02 0.142E+03 0.000E+00
       145.726152      103.215522      736.813982     1     0     0     0     6   1.560 0.709E+02 0.142E+03 0.000E+00