ITEM: TIMESTEP
0
ITEM: NUMBER OF ATOMS
        3670
ITEM: BOX BOUNDS pp pp pp
  0.0000000E+00   200.000000000000     
  0.0000000E+00   200.000000000000     
  0.0000000E+00   5000.00000000000     
ITEM: ATOMS x y z f1 f2 f3 f4 orient radius rate_mig rate_rot rate_emit
        76.399215      103.311702      903.765233     1     0     0     0     2   1.560 0.709E+02 0.142E+03 0.000E+00
       136.048986       87.720961      121.715206     1     0     0     0     3   1.560 0.709E+02 0.142E+03 0.000E+00
       191.904207       74.699298      512.530946     1     0     0     0     1   1.560 0.709E+02 0.142E+03 0.000E+00
        76.360036      120.273513      682.530209     3     2     0     0     8   2.248 0.000E+00 0.000E+00 0.303E+03
       168.590193      196.833585      330.992675     1     0     0     0     2   1.560 0.709E+02 0.142E+03 0.000E+00
       195.600067       11.972655      862.652738     1     0     0     0     1   1.560 0.709E+02 0.142E+03 0.000E+00
        75.454614       73.552684      284.601741     1     0     0     0     2   1.560 0.709E+02 0.142E+03 0.000E+00
        56.038585      161.203328      527.788439     1     0     0     0     2   1.560 0.709E+02 0.142E+03 0.000E+00
       193.887622       71.601918      579.396307     1     0     0     0     8   1.560 0.709E+02 0.142E+03 0.000E+00
       129.076658      150.280488      984.312909     1     0     0     0     3   1.560 0.709E+02 0.142E+03 0.000E+00
        34.399665       99.588179      309.338528     1     0     0     0     3   1.560 0.709E+02 0.142E+03 0.000E+00
        37.773419      123.376381      183.392727     1     0     0     0     4   1.560 0.709E+02 0.142E+03 0.000E+00
        51.403045      169.829875      544.330613     1     0     0     0     6   1.560 0.709E+02 0.142E+03 0.000E+00
        84.038244       83.403755      171.554605     1     0     0     0     3   1.560 0.709E+02 0.142E+03 0.000E+00
       177.178536      144.354796      749.582183     1     0     0     0     7   1.560 0.709E+02 0.142E+03 0.000E+00
        58.325625       73.234243      471.914453     1     0     0     0     5   1.560 0.709E+02 0.142E+03 0.000E+00
       188.698700      188.124843      428.582394     4     1     0     0     3   2.474 0.000E+00 0.000E+00 0.412E+02
       167.335203       63.650661      893.789905     1     0     0     0     1   1.560 0.709E+02 0.142E+03 0.000E+00
         3.591201        8.856432       95.174990    15     1     0     0     8   3.843 0.000E+00 0.000E+00 0.180E+03
       131.281590      133.245748       44.877289     1     0     0     0     6   1.560 0.709E+02 0.142E+03 0.000E+00
       112.050778      145.323226       33.001090     5     0     0     0     3   2.660 0.709E-10 0.142E-09 0.347E-02
       106.393696       84.053228      222.469678     1     0     0     0     8   1.560 0.709E+02 0.142E+03 0.000E+00
        10.500367      151.120605      388.888824    10     2     0     0     1   3.357 0.000E+00 0.000E+00 0.656E+02
        76.448024      184.569091      550.129317     1     0     0     0     6   1.560 0.709E+02 0.142E+03 0.000E+00
       183.402178      155.896771      329.791184     1     0     0     0     7   1.560 0.709E+02 0.142E+03 0.000E+00
        47.951833       57.633249      471.832126     1     0     0     0     5   1.560 0.709E+02 0.142E+03 0.000E+00
       133.412457       84.757881      855.009765     1     0     0     0     4   1.560 0.709E+02 0.142E+03 0.000E+00
       110.401406       46.692465      979.516887     1     0     0     0     8   1.560 0.709E+02 0.142E+03 0.000E+00
       127.533993      110.240412      181.033435     1     0     0     0     4   1.560 0.709E+02 0.142E+03 0.000E+00
        20.043935      107.775513       76.259993     1     0     0     0     7   1.560 0.709E+02 0.142E+03 0.000E+00
        84.488662       80.569872      289.303379     8     1     0     0     3   3.117 0.000E+00 0.000E+00 0.410E+02
        78.174415      186.356153      820.566854     1     0     0     0     3   1.560 0.709E+02 0.142E+03 0.000E+00
         7.938713      123.729096     1117.293708     1     0     0     0     8   1.560 0.709E+02 0.142E+03 0.000E+00
        74.940754      117.820311      308.049880     1     0     0     0     8   1.560 0.709E+02 0.142E+03 0.000E+00
        58.342193       53.739485      335.921359     1     0     0     0     5   1.560 0.709E+02 0.142E+03 0.000E+00
       187.293984      146.379106      442.064174     1     0     0     0     3   1.560 0.709E+02 0.142E+03 0.000E+00
       111.660033        7.354561      888.425849     1     0     0     0     2   1.560 0.709E+02 0.142E+03 0.000E+00
       134.957689      194.145510      787.827462     1     0     0     0     3   1.560 0.709E+02 0.142E+03 0.000E+00
        45.106871      133.901775      227.740857     1     0     0     0     4   1.560 0.709E+02 0.142E+03 0.000E+00
        88.757369      151.699115       91.989337     4     0     0     0     5   2.470 0.709E-07 0.142E-06 0.983E-02
        20.782784      147.606850      189.647653     4     1     0     0     2   2.474 0.000E+00 0.000E+00 0.412E+02
       199.452397      167.027895     1166.428954     1     0     0     0     4   1.560 0.709E+02 0.142E+03 0.000E+00
         7.150498      113.337882      417.059264     1     0     0     0     6   1.560 0.709E+02 0.142E+03 0.000E+00
        80.782392        3.689565      500.543960     1     0     0     0     4   1.560 0.709E+02 0.142E+03 0.000E+00
       144.587516       44.892624      848.481412     1     0     0     0     8   1.560 0.709E+02 0.142E+03 0.000E+00
        15.538862      159.578633      904.498287     1     0     0     0     8   1.560 0.709E+02 0.142E+03 0.000E+00
        93.573826        2.659827      511.890479     1     0     0     0     6   1.560 0.709E+02 0.142E+03 0.000E+00
       128.530106      129.168566      569.400416     1     0     0     0     7   1.560 0.709E+02 0.142E+03 0.000E+00
        21.435191        6.972974      234.452014     1     0     0     0     4   1.560 0.709E+02 0.142E+03 0.000E+00
       182.116386      108.353261      257.441783     5     0     0     0     8   2.660 0.709E-10 0.142E-09 0.347E-02
       136.747069      149.591254       78.066232     1     0     0     0     4   1.560 0.709E+02 0.142E+03 0.000E+00
        64.762545      109.254049      810.048931     1     0     0     0     7   1.560 0.709E+02 0.142E+03 0.000E+00
       171.822318      179.298183      642.660045     1     0     0     0     7   1.560 0.709E+02 0.142E+03 0.000E+00
        28.197947      123.758081      353.105808     1     0     0     0     3   1.560 0.709E+02 0.142E+03 0.000E+00
       127.442891      118.062728      460.565062     1     0     0     0     8   1.560 0.709E+02 0.142E+03 0.000E+00
        92.401450      106.618645     1144.110489     1     0     0     0     3   1.560 0.709E+02 0.142E+03 0.000E+00
        51.743977       51.266381      836.379216     1     0     0     0     8   1.560 0.709E+02 0.142E+03 0.000E+00
       198.789863       86.385866      288.763531     1     0     0     0     5   1.560 0.709E+02 0.142E+03 0.000E+00
       183.139801       93.705458      379.545900     1     0     0     0     4   1.560 0.709E+02 0.142E+03 0.000E+00
        42.529033      131.825522      406.426258     1     0     0     0     1   1.560 0.709E+02 0.142E+03 0.000E+00
       194.718149       25.874368      406.631550     1     0     0     0     6   1.560 0.709E+02 0.142E+03 0.000E+00
        22.075517       61.538350      323.644365     1     0     0     0     5   1.560 0.709E+02 0.142E+03 0.000E+00
       165.953762       85.679032      315.993204     4     2     0     0     1   2.474 0.000E+00 0.000E+00 0.675E+02
        82.262030       34.582599      344.993810     1     0     0     0     7   1.560 0.709E+02 0.142E+03 0.000E+00
        83.432513       85.957274      489.023929     5     0     0     0     3   2.660 0.709E-10 0.142E-09 0.347E-02
       105.603038       13.502252      252.571065     1     0     0     0     7   1.560 0.709E+02 0.142E+03 0.000E+00
       119.954540      125.043397      112.869819     1     0     0     0     2   1.560 0.709E+02 0.142E+03 0.000E+00
       198.894552       54.000249      239.414629     1     0     0     0     7   1.560 0.709E+02 0.142E+03 0.000E+00
       148.569120        6.705455      354.862348     1     0     0     0     2   1.560 0.709E+02 0.142E+03 0.000E+00
         8.179250        4.768546      974.451814     1     0     0     0     1   1.560 0.709E+02 0.142E+03 0.000E+00
       147.237391      156.959770      173.989619     6     1     0     0     4   2.832 0.000E+00 0.000E+00 0.411E+02
       193.572659      182.318403      148.753295     1     0     0     0     1   1.560 0.709E+02 0.142E+03 0.000E+00
       106.479673      101.891837       59.908246     4     0     0     0     5   2.470 0.709E-07 0.142E-06 0.983E-02
       191.028428       50.253203      484.002391     1     0     0     0     4   1.560 0.709E+02 0.142E+03 0.000E+00
        50.632303       76.642410      689.707403     1     0     0     0     1   1.560 0.709E+02 0.142E+03 0.000E+00
       182.755157       57.143299      783.475347     1     0     0     0     6   1.560 0.709E+02 0.142E+03 0.000E+00
       113.717080      133.820031      107.910798     1     0     0     0     5   1.560 0.709E+02 0.142E+03 0.000E+00
        61.261541      172.690504      360.639297     1     0     0     0     8   1.560 0.709E+02 0.142E+03 0.000E+00
       122.761318       49.997379       43.959047     1     0     0     0     4   1.560 0.709E+02 0.142E+03 0.000E+00
        35.538545       74.555290      899.198176     1     0     0     0     1   1.560 0.709E+02 0.142E+03 0.000E+00
       147.576461       33.495094      619.344489     1     0     0     0     4   1.560 0.709E+02 0.142E+03 0.000E+00
        46.526823       26.024922      460.990628     5     0     0     0     6   2.660 0.709E-10 0.142E-09 0.347E-02
       134.970804      199.267941      189.691647     7     3     0     0     2   2.981 0.000E+00 0.000E+00 0.888E+02
        60.530637      179.832468      824.682374     1     0     0     0     7   1.560 0.709E+02 0.142E+03 0.000E+00
       111.165064      194.118860      176.960729     1     0     0     0     3   1.560 0.709E+02 0.142E+03 0.000E+00
         6.563241       16.338027      534.192384     1     0     0     0     8   1.560 0.709E+02 0.142E+03 0.000E+00
        57.081042      177.076521      335.673260     1     0     0     0     2   1.560 0.709E+02 0.142E+03 0.000E+00
        60.534181      174.266029      428.093888     1     0     0     0     3   1.560 0.709E+02 0.142E+03 0.000E+00
        58.653823       77.161933       51.774956     1     0     0     0     4   1.560 0.709E+02 0.142E+03 0.000E+00
       128.200633       28.529595      168.845573     1     0     0     0     6   1.560 0.709E+02 0.142E+03 0.000E+00
       153.643056      189.757824     1092.177181     1     0     0     0     8   1.560 0.709E+02 0.142E+03 0.000E+00
         3.094431       40.989831      886.977587     1     0     0     0     5   1.560 0.709E+02 0.142E+03 0.000E+00
       176.869053       80.717341      508.541787     1     0     0     0     2   1.560 0.709E+02 0.142E+03 0.000E+00
        26.867283      168.384809      665.756954     1     0     0     0     4   1.560 0.709E+02 0.142E+03 0.000E+00
        82.387369       50.805185      150.284180     1     0     0     0     7   1.560 0.709E+02 0.142E+03 0.000E+00
        98.475480       96.863090      762.879179     1     0     0     0     3   1.560 0.709E+02 0.142E+03 0.000E+00
       119.469790       72.455179     1011.785863     1     0     0     0     6   1.560 0.709E+02 0.142E+03 0.000E+00
        57.632079       94.869659      346.867769     1     0     0     0     1   1.560 0.709E+02 0.142E+03 0.000E+00
       127.846163       50.608521      324.146424     1     0     0     0     8   1.560 0.709E+02 0.142E+03 0.000E+00
       164.565407      145.587818      404.436149     1     0     0     0     1   1.560 0.709E+02 0.142E+03 0.000E+00
        30.658473      143.372890      797.446167     1     0     0     0     8   1.560 0.709E+02 0.142E+03 0.000E+00
       197.475236      178.066909      457.939948     7     0     0     0     2   2.980 0.709E-16 0.142E-15 0.189E-02
       175.252991      153.782292       37.028308     1     0     0     0     8   1.560 0.709E+02 0.142E+03 0.000E+00
       118.153608      143.587205       80.183502     1     0     0     0     1   1.560 0.709E+02 0.142E+03 0.000E+00
        64.146759      171.373681      125.745459     1     0     0     0     2   1.560 0.709E+02 0.142E+03 0.000E+00
       132.628433       35.838710      459.104861     6     1     0     0     4   2.832 0.000E+00 0.000E+00 0.411E+02
        34.284761      188.036407      317.591569     1     0     0     0     6   1.560 0.709E+02 0.142E+03 0.000E+00
       164.035459      175.982203      642.082188     1     0     0     0     6   1.560 0.709E+02 0.142E+03 0.000E+00
       193.650774        1.153437      974.424397     1     0     0     0     1   1.560 0.709E+02 0.142E+03 0.000E+00
       111.321546       85.813744      670.147721     1     0     0     0     7   1.560 0.709E+02 0.142E+03 0.000E+00
       163.198103      114.565475     1345.184305     1     0     0     0     7   1.560 0.709E+02 0.142E+03 0.000E+00
       198.357075      164.222767      819.357462     1     0     0     0     5   1.560 0.709E+02 0.142E+03 0.000E+00
       102.004630      137.090647      148.553004     8     0     0     0     5   3.120 0.709E-19 0.142E-18 0.128E-03
       161.401469        1.779948     1052.174413     1     0     0     0     1   1.560 0.709E+02 0.142E+03 0.000E+00
       163.430546        0.395509      472.879182     1     0     0     0     3   1.560 0.709E+02 0.142E+03 0.000E+00
       167.047729      168.414071       26.563266     7     0     0     0     6   2.980 0.709E-16 0.142E-15 0.189E-02
       173.843527       60.909250      389.811183     1     0     0     0     7   1.560 0.709E+02 0.142E+03 0.000E+00
        41.331457       13.092882      124.954945     1     0     0     0     8   1.560 0.709E+02 0.142E+03 0.000E+00
       182.104055      104.347004       97.848662     1     0     0     0     4   1.560 0.709E+02 0.142E+03 0.000E+00
       166.354794       68.298959      338.523297     1     0     0     0     6   1.560 0.709E+02 0.142E+03 0.000E+00
       174.668767      131.424297      990.259021     1     0     0     0     3   1.560 0.709E+02 0.142E+03 0.000E+00
        81.643785      175.680321      640.024600     1     0     0     0     1   1.560 0.709E+02 0.142E+03 0.000E+00
       125.402364        8.615568      190.188593     1     0     0     0     7   1.560 0.709E+02 0.142E+03 0.000E+00
       155.014087      155.811285      439.507051     1     0     0     0     5   1.560 0.709E+02 0.142E+03 0.000E+00
        19.294763       83.689075       72.839938     6     1     0     0     8   2.832 0.000E+00 0.000E+00 0.411E+02
       100.268430       11.985763       34.594355     1     0     0     0     1   1.560 0.709E+02 0.142E+03 0.000E+00
       171.906642        8.665683     1035.614384     1     0     0     0     2   1.560 0.709E+02 0.142E+03 0.000E+00
        88.974425      117.030216     1131.833220     1     0     0     0     7   1.560 0.709E+02 0.142E+03 0.000E+00
        97.874798       44.730430      280.513484     1     0     0     0     5   1.560 0.709E+02 0.142E+03 0.000E+00
        75.054396       19.671966      637.706840     1     0     0     0     2   1.560 0.709E+02 0.142E+03 0.000E+00
        46.832200       62.855570      698.752498     1     0     0     0     8   1.560 0.709E+02 0.142E+03 0.000E+00
       156.094011       47.294604      831.417207     1     1     0     0     5   1.558 0.000E+00 0.000E+00 0.356E+05
       126.891372      182.752768      750.965470     1     0     0     0     4   1.560 0.709E+02 0.142E+03 0.000E+00
       188.198198      170.132676     1046.369634     1     0     0     0     7   1.560 0.709E+02 0.142E+03 0.000E+00
        21.324478       64.376946       28.710327     1     0     0     0     5   1.560 0.709E+02 0.142E+03 0.000E+00
        80.485135       58.969961      687.688924     1     0     0     0     8   1.560 0.709E+02 0.142E+03 0.000E+00
        13.593860       51.601772       83.556769     1     0     0     0     3   1.560 0.709E+02 0.142E+03 0.000E+00
       190.116752      141.194099      708.022573     1     0     0     0     1   1.560 0.709E+02 0.142E+03 0.000E+00
        84.841190       18.279016      857.957888     5     2     0     0     2   2.665 0.000E+00 0.000E+00 0.668E+02
       141.920945      119.510562     1155.679537     1     0     0     0     5   1.560 0.709E+02 0.142E+03 0.000E+00
        75.678603       58.464437      202.060043     1     0     0     0     3   1.560 0.709E+02 0.142E+03 0.000E+00
       174.753794       87.573621      714.313985     1     0     0     0     8   1.560 0.709E+02 0.142E+03 0.000E+00
       188.041197      141.246645      597.953806     1     0     0     0     1   1.560 0.709E+02 0.142E+03 0.000E+00
       167.674282      185.591290      594.154897     1     0     0     0     5   1.560 0.709E+02 0.142E+03 0.000E+00
       101.640507       43.503525     1032.895291     1     0     0     0     3   1.560 0.709E+02 0.142E+03 0.000E+00
        30.188006       68.850529      357.750490     1     0     0     0     5   1.560 0.709E+02 0.142E+03 0.000E+00
       104.919835      173.511898      715.611679     1     0     0     0     4   1.560 0.709E+02 0.142E+03 0.000E+00
       188.323281      141.215626      229.647037     1     0     0     0     4   1.560 0.709E+02 0.142E+03 0.000E+00
       121.707176       67.814775      734.514868     1     0     0     0     8   1.560 0.709E+02 0.142E+03 0.000E+00
        36.510900      157.839863      137.348370     5     0     0     0     8   2.660 0.709E-10 0.142E-09 0.347E-02
        13.526640       81.958156      339.889507     1     0     0     0     7   1.560 0.709E+02 0.142E+03 0.000E+00
        46.365663      137.889483      253.297608     1     0     0     0     2   1.560 0.709E+02 0.142E+03 0.000E+00
       123.940116      140.135030      616.480787     1     0     0     0     2   1.560 0.709E+02 0.142E+03 0.000E+00
        49.338822       19.284956      496.782887     1     0     0     0     8   1.560 0.709E+02 0.142E+03 0.000E+00
       194.942997       13.842474        8.725081     5     0     0     0     4   2.660 0.709E-10 0.142E-09 0.347E-02
       131.905292       72.758824      180.633822     1     0     0     0     2   1.560 0.709E+02 0.142E+03 0.000E+00
       156.620234       50.847654      890.972591     1     0     0     0     5   1.560 0.709E+02 0.142E+03 0.000E+00
        42.441351      161.605793      955.339465     1     0     0     0     5   1.560 0.709E+02 0.142E+03 0.000E+00
       166.906178       37.261793     1077.050395     1     0     0     0     1   1.560 0.709E+02 0.142E+03 0.000E+00
       147.803164      139.421796      296.380259     1     0     0     0     6   1.560 0.709E+02 0.142E+03 0.000E+00
       158.619345       76.635357      107.465179     7     1     0     0     7   2.981 0.000E+00 0.000E+00 0.411E+02
       144.281731      152.706510      667.166030     1     0     0     0     8   1.560 0.709E+02 0.142E+03 0.000E+00
       128.755897      199.765509      617.333008     1     0     0     0     3   1.560 0.709E+02 0.142E+03 0.000E+00
       150.362765       12.691378       72.693907     1     0     0     0     3   1.560 0.709E+02 0.142E+03 0.000E+00
       139.767316      101.654039      183.002837     1     0     0     0     7   1.560 0.709E+02 0.142E+03 0.000E+00
       115.323958       99.009728      294.714479     2     0     0     0     7   1.960 0.709E-01 0.142E+00 0.840E+02
       141.115238      176.418755      412.258345     2     0     0     0     1   1.960 0.709E-01 0.142E+00 0.840E+02
         0.300353      108.636379      901.378108     1     0     0     0     2   1.560 0.709E+02 0.142E+03 0.000E+00
       190.728927       74.191874      779.780616     1     0     0     0     2   1.560 0.709E+02 0.142E+03 0.000E+00
        95.412488      192.074824      168.382164     1     0     0     0     6   1.560 0.709E+02 0.142E+03 0.000E+00
        64.285779      113.216960      188.608102     1     0     0     0     4   1.560 0.709E+02 0.142E+03 0.000E+00
       166.786268      166.442511      435.317384     1     0     0     0     6   1.560 0.709E+02 0.142E+03 0.000E+00
        68.660110       21.699221      803.256620     1     0     0     0     2   1.560 0.709E+02 0.142E+03 0.000E+00
       115.964791      133.687850      919.461655     1     0     0     0     1   1.560 0.709E+02 0.142E+03 0.000E+00
        44.966870       46.012566      196.053102     1     0     0     0     1   1.560 0.709E+02 0.142E+03 0.000E+00
        98.460168      184.450507      464.685301     1     0     0     0     2   1.560 0.709E+02 0.142E+03 0.000E+00
       162.396995      179.576078      433.367669     1     0     0     0     3   1.560 0.709E+02 0.142E+03 0.000E+00
        17.875585       33.441617      521.056802     1     0     0     0     6   1.560 0.709E+02 0.142E+03 0.000E+00
        85.698169      173.629488      336.191182     1     0     0     0     4   1.560 0.709E+02 0.142E+03 0.000E+00
       161.075348       49.641992       43.173970     1     0     0     0     1   1.560 0.709E+02 0.142E+03 0.000E+00
       147.661205      183.809167      178.375799     1     0     0     0     7   1.560 0.709E+02 0.142E+03 0.000E+00
        52.015783       48.690008      651.220720     1     0     0     0     6   1.560 0.709E+02 0.142E+03 0.000E+00
       143.684664      165.018160      100.813439     1     0     0     0     7   1.560 0.709E+02 0.142E+03 0.000E+00
        32.357412        9.180165     1232.855332     1     0     0     0     2   1.560 0.709E+02 0.142E+03 0.000E+00
         6.483589      185.893369      640.634075     1     0     0     0     8   1.560 0.709E+02 0.142E+03 0.000E+00
        22.085687       12.344134      315.535170     1     0     0     0     2   1.560 0.709E+02 0.142E+03 0.000E+00
       143.743412      188.361645      983.415645     1     0     0     0     2   1.560 0.709E+02 0.142E+03 0.000E+00
         3.309640       97.195303      119.737847     1     0     0     0     3   1.560 0.709E+02 0.142E+03 0.000E+00
       101.506720      187.489860      498.201835     1     0     0     0     1   1.560 0.709E+02 0.142E+03 0.000E+00
       154.292733      163.768514      343.967603     1     0     0     0     2   1.560 0.709E+02 0.142E+03 0.000E+00
         9.901398      199.996686     1249.481496     1     0     0     0     4   1.560 0.709E+02 0.142E+03 0.000E+00
       139.124224       24.273744      240.632532     1     0     0     0     3   1.560 0.709E+02 0.142E+03 0.000E+00
       107.758249       30.287343      646.862972     1     0     0     0     8   1.560 0.709E+02 0.142E+03 0.000E+00
        74.984296       32.594920       88.229012     1     0     0     0     5   1.560 0.709E+02 0.142E+03 0.000E+00
       104.271640       90.572338      548.431578     1     0     0     0     3   1.560 0.709E+02 0.142E+03 0.000E+00
        46.191252       34.299790      747.448526     1     0     0     0     3   1.560 0.709E+02 0.142E+03 0.000E+00
        85.674928      173.290632      599.821885     1     0     0     0     5   1.560 0.709E+02 0.142E+03 0.000E+00
       185.012171      147.752399      355.672835     1     0     0     0     3   1.560 0.709E+02 0.142E+03 0.000E+00
        80.209455      161.113215      855.002150     1     0     0     0     4   1.560 0.709E+02 0.142E+03 0.000E+00
         7.407230      199.361761      912.192403     1     0     0     0     1   1.560 0.709E+02 0.142E+03 0.000E+00
        33.106895       55.100803      518.919397     1     0     0     0     5   1.560 0.709E+02 0.142E+03 0.000E+00
       143.680527      151.314999       21.664959     1     0     0     0     8   1.560 0.709E+02 0.142E+03 0.000E+00
        84.442144      116.607217      747.084761     1     0     0     0     2   1.560 0.709E+02 0.142E+03 0.000E+00
       119.732283      107.893512      830.898069     1     0     0     0     5   1.560 0.709E+02 0.142E+03 0.000E+00
        84.408975       36.160975      211.956947     1     0     0     0     2   1.560 0.709E+02 0.142E+03 0.000E+00
       163.833551       66.919894     1018.971843     1     0     0     0     2   1.560 0.709E+02 0.142E+03 0.000E+00
       148.257477      133.791401       52.790080     1     0     0     0     6   1.560 0.709E+02 0.142E+03 0.000E+00
       185.262707      187.093385      633.774005     1     0     0     0     8   1.560 0.709E+02 0.142E+03 0.000E+00
        69.510546      159.100520      833.742630     1     0     0     0     4   1.560 0.709E+02 0.142E+03 0.000E+00
       131.221803       40.582705      312.657026     1     0     0     0     2   1.560 0.709E+02 0.142E+03 0.000E+00
        37.455785      186.806327     1041.773109     1     0     0     0     6   1.560 0.709E+02 0.142E+03 0.000E+00
        60.980845      171.825913       86.630415     1     0     0     0     2   1.560 0.709E+02 0.142E+03 0.000E+00
       193.061564      125.669305      361.649385     1     0     0     0     8   1.560 0.709E+02 0.142E+03 0.000E+00
       108.973826       50.132234      269.530157     1     0     0     0     2   1.560 0.709E+02 0.142E+03 0.000E+00
       154.271384       34.719293      568.764456     1     0     0     0     8   1.560 0.709E+02 0.142E+03 0.000E+00
        25.035388       47.384501      584.693097     1     0     0     0     5   1.560 0.709E+02 0.142E+03 0.000E+00
       169.611880      100.888572      270.198925     1     0     0     0     6   1.560 0.709E+02 0.142E+03 0.000E+00
       178.392865       30.123220      815.838400     1     0     0     0     6   1.560 0.709E+02 0.142E+03 0.000E+00
       171.236233      170.785155      599.189057     1     0     0     0     6   1.560 0.709E+02 0.142E+03 0.000E+00
        49.159510       95.591424       56.569013     3     1     0     0     1   2.248 0.000E+00 0.000E+00 0.406E+01
       177.378894       34.383640      141.483731     1     0     0     0     5   1.560 0.709E+02 0.142E+03 0.000E+00
       180.428870       86.256185      418.257651     1     0     0     0     6   1.560 0.709E+02 0.142E+03 0.000E+00
        24.557443       39.543877       98.267915     1     0     0     0     8   1.560 0.709E+02 0.142E+03 0.000E+00
        79.239069      168.088603      459.354392     9     5     0     0     1   3.241 0.000E+00 0.000E+00 0.132E+03
       143.663140      115.784455       91.149722     1     0     0     0     5   1.560 0.709E+02 0.142E+03 0.000E+00
        17.153857      124.174854      568.791839     1     0     0     0     5   1.560 0.709E+02 0.142E+03 0.000E+00
        45.132510      118.937632      441.319311     1     0     0     0     1   1.560 0.709E+02 0.142E+03 0.000E+00
       168.977546      145.920628      386.908807     1     0     0     0     5   1.560 0.709E+02 0.142E+03 0.000E+00
       164.442206      127.191550      214.916385     2     0     0     0     4   1.960 0.709E-01 0.142E+00 0.840E+02
        73.597117      145.447161      200.398680     1     0     0     0     1   1.560 0.709E+02 0.142E+03 0.000E+00
       167.442067       92.688371      769.345392     1     0     0     0     3   1.560 0.709E+02 0.142E+03 0.000E+00
        87.083065       44.472882      254.672916     1     0     0     0     2   1.560 0.709E+02 0.142E+03 0.000E+00
        13.520791       32.280534      720.210623     1     0     0     0     2   1.560 0.709E+02 0.142E+03 0.000E+00
        58.634122       58.649846      256.840678     1     0     0     0     2   1.560 0.709E+02 0.142E+03 0.000E+00
       111.700242      192.195735     1157.953748     1     0     0     0     1   1.560 0.709E+02 0.142E+03 0.000E+00
       108.911579       65.711075      849.441316     1     0     0     0     2   1.560 0.709E+02 0.142E+03 0.000E+00
       154.038508      103.829087      612.652277     1     0     0     0     3   1.560 0.709E+02 0.142E+03 0.000E+00
         7.043190       61.938276      630.543172     1     0     0     0     8   1.560 0.709E+02 0.142E+03 0.000E+00
       195.079331       78.291068       17.127649     7     0     0     0     1   2.980 0.709E-16 0.142E-15 0.189E-02
       124.105902       75.782829      337.115268     1     0     0     0     1   1.560 0.709E+02 0.142E+03 0.000E+00
       113.334122       54.561941      715.940984     1     0     0     0     4   1.560 0.709E+02 0.142E+03 0.000E+00
       186.647424      199.162212       43.279372     1     0     0     0     8   1.560 0.709E+02 0.142E+03 0.000E+00
       146.295378      112.993502      347.353883     1     0     0     0     2   1.560 0.709E+02 0.142E+03 0.000E+00
        87.690660      165.891896     1155.409150     1     0     0     0     6   1.560 0.709E+02 0.142E+03 0.000E+00
        23.665992       93.986344       76.285024     1     0     0     0     1   1.560 0.709E+02 0.142E+03 0.000E+00
        19.279568      157.159950       29.248262     1     0     0     0     4   1.560 0.709E+02 0.142E+03 0.000E+00
       195.456981        2.584869      720.635373     1     0     0     0     7   1.560 0.709E+02 0.142E+03 0.000E+00
        71.523094      127.568052      952.380858     1     0     0     0     5   1.560 0.709E+02 0.142E+03 0.000E+00
        61.372764       97.633279      917.229980     1     0     0     0     5   1.560 0.709E+02 0.142E+03 0.000E+00
       164.106174       64.569561      359.851052     1     0     0     0     3   1.560 0.709E+02 0.142E+03 0.000E+00
       111.532337      188.993596      275.516255     1     0     0     0     3   1.560 0.709E+02 0.142E+03 0.000E+00