ITEM: TIMESTEP
0
ITEM: NUMBER OF ATOMS
        2846
ITEM: BOX BOUNDS pp pp pp
  0.0000000E+00   200.000000000000     
  0.0000000E+00   200.000000000000     
  0.0000000E+00   5000.00000000000     
ITEM: ATOMS x y z f1 f2 f3 f4 orient radius rate_mig rate_rot rate_emit
        30.380186      187.440154      964.018374     1     0     0     0     7   1.560 0.709E+02 0.142E+03 0.000E+00
        94.708597       93.176989      409.013553     1     0     0     0     7   1.560 0.709E+02 0.142E+03 0.000E+00
        15.231634      191.503501      819.264025     5     0     0     0     1   2.660 0.709E-10 0.142E-09 0.347E-02
        61.926249      113.031669      314.628990     1     0     0     0     1   1.560 0.709E+02 0.142E+03 0.000E+00
         3.041420      158.642661      540.861643     2     0     0     0     2   1.960 0.709E-01 0.142E+00 0.840E+02
        13.844866       53.071363       10.988686     8     0     0     0     2   3.120 0.709E-19 0.142E-18 0.128E-03
       144.574654       90.706006     1278.538859     1     0     0     0     1   1.560 0.709E+02 0.142E+03 0.000E+00
        60.221444      146.072946       44.664971     9     0     0     0     3   3.240 0.709E-22 0.142E-21 0.157E-06
       160.766867       40.377111      504.502087     1     0     0     0     2   1.560 0.709E+02 0.142E+03 0.000E+00
        10.177949       39.181684      764.003216     1     0     0     0     6   1.560 0.709E+02 0.142E+03 0.000E+00
        91.651927      171.269611      460.247665     1     0     0     0     4   1.560 0.709E+02 0.142E+03 0.000E+00
        44.926407       87.454015      637.198399     1     0     0     0     7   1.560 0.709E+02 0.142E+03 0.000E+00
        77.147230      119.442102      682.630214     5     0     0     0     6   2.660 0.709E-10 0.142E-09 0.347E-02
       170.154890       42.327919      168.613450     1     0     0     0     2   1.560 0.709E+02 0.142E+03 0.000E+00
       197.579414       95.356996      680.718607     1     0     0     0     1   1.560 0.709E+02 0.142E+03 0.000E+00
       155.538179      153.501184      157.716019     1     0     0     0     3   1.560 0.709E+02 0.142E+03 0.000E+00
        63.249409        9.149281      426.647575     7     3     0     0     7   2.981 0.000E+00 0.000E+00 0.888E+02
        85.216549      131.289856      385.151340     1     0     0     0     1   1.560 0.709E+02 0.142E+03 0.000E+00
        66.212372      107.252553      366.432202     1     0     0     0     6   1.560 0.709E+02 0.142E+03 0.000E+00
       103.030365       86.363118       92.643619     1     0     0     0     3   1.560 0.709E+02 0.142E+03 0.000E+00
       121.787061       86.848873      843.177626     1     0     0     0     1   1.560 0.709E+02 0.142E+03 0.000E+00
       178.017258      178.875354      362.365392     1     0     0     0     1   1.560 0.709E+02 0.142E+03 0.000E+00
        45.914029       65.114203      537.095831     1     0     0     0     1   1.560 0.709E+02 0.142E+03 0.000E+00
        97.761756       43.198599      236.690958     1     0     0     0     3   1.560 0.709E+02 0.142E+03 0.000E+00
        59.802236       26.846595      560.124832     1     0     0     0     3   1.560 0.709E+02 0.142E+03 0.000E+00
        79.591526       86.366319      781.271340     1     0     0     0     4   1.560 0.709E+02 0.142E+03 0.000E+00
        62.340466      102.642585      346.053945     1     0     0     0     1   1.560 0.709E+02 0.142E+03 0.000E+00
       180.139418       66.686000      641.621196     1     0     0     0     8   1.560 0.709E+02 0.142E+03 0.000E+00
        69.890251      149.786328      352.505414     1     0     0     0     4   1.560 0.709E+02 0.142E+03 0.000E+00
        83.380754       22.618900      187.936338     1     0     0     0     8   1.560 0.709E+02 0.142E+03 0.000E+00
       101.543711      133.702265      273.523417     7     2     0     0     8   2.981 0.000E+00 0.000E+00 0.660E+02
       139.726177       35.973837      317.592028     1     0     0     0     1   1.560 0.709E+02 0.142E+03 0.000E+00
       174.556507        8.386626      946.848915     1     0     0     0     2   1.560 0.709E+02 0.142E+03 0.000E+00
       199.755199      110.374840      930.004428     1     0     0     0     7   1.560 0.709E+02 0.142E+03 0.000E+00
        78.203750      149.262265     1056.202104     1     0     0     0     1   1.560 0.709E+02 0.142E+03 0.000E+00
        92.435223       80.206296      716.578126     1     0     0     0     5   1.560 0.709E+02 0.142E+03 0.000E+00
        43.238454      116.024379      124.566554     6     0     0     0     3   2.830 0.709E-13 0.142E-12 0.925E-04
         1.032200      121.209863      965.818604     1     0     0     0     6   1.560 0.709E+02 0.142E+03 0.000E+00
        51.915742      155.768361      409.238386     1     0     0     0     8   1.560 0.709E+02 0.142E+03 0.000E+00
       135.828917      139.308050      520.867996     1     0     0     0     7   1.560 0.709E+02 0.142E+03 0.000E+00
        73.527076       44.855932      561.398696     1     0     0     0     3   1.560 0.709E+02 0.142E+03 0.000E+00
        70.734433      116.446464      517.180941     1     0     0     0     7   1.560 0.709E+02 0.142E+03 0.000E+00
       185.760087       27.714025      560.906495     5     3     0     0     7   2.665 0.000E+00 0.000E+00 0.401E+03
        70.627233      177.435341      545.349347     1     0     0     0     2   1.560 0.709E+02 0.142E+03 0.000E+00
        31.722193       44.760091      497.766041     1     0     0     0     8   1.560 0.709E+02 0.142E+03 0.000E+00
        74.712947      133.938974      349.015213     1     0     0     0     2   1.560 0.709E+02 0.142E+03 0.000E+00
        87.260373      147.002582      815.769629     1     0     0     0     7   1.560 0.709E+02 0.142E+03 0.000E+00
       125.175085       55.101131     1478.147324     1     0     0     0     5   1.560 0.709E+02 0.142E+03 0.000E+00
       119.343147       98.027318       54.225113     9     0     0     0     4   3.240 0.709E-22 0.142E-21 0.157E-06
       172.828687      113.359870     1064.421456     1     0     0     0     1   1.560 0.709E+02 0.142E+03 0.000E+00
        21.597769      129.540124      657.598374     1     0     0     0     7   1.560 0.709E+02 0.142E+03 0.000E+00
        58.394958      192.916090      358.368552     1     0     0     0     2   1.560 0.709E+02 0.142E+03 0.000E+00
       187.535325       64.320756     1000.619710     1     0     0     0     6   1.560 0.709E+02 0.142E+03 0.000E+00
       177.538214      148.980859      560.452913     1     0     0     0     6   1.560 0.709E+02 0.142E+03 0.000E+00
        26.665500       96.405177      453.273291     1     0     0     0     3   1.560 0.709E+02 0.142E+03 0.000E+00
       116.775194      164.549042      910.655733     1     0     0     0     3   1.560 0.709E+02 0.142E+03 0.000E+00
       197.700803        2.937002      504.060322     1     0     0     0     2   1.560 0.709E+02 0.142E+03 0.000E+00
       125.930659       37.192026      176.266355     1     0     0     0     4   1.560 0.709E+02 0.142E+03 0.000E+00
       164.989563       31.995160      557.430668     1     0     0     0     7   1.560 0.709E+02 0.142E+03 0.000E+00
        93.616462      132.977056      623.884237     1     0     0     0     6   1.560 0.709E+02 0.142E+03 0.000E+00
         6.434182      191.656700     1201.357279     1     0     0     0     7   1.560 0.709E+02 0.142E+03 0.000E+00
        25.011785       55.069122      108.970576     1     0     0     0     4   1.560 0.709E+02 0.142E+03 0.000E+00
       160.313750       22.087975      545.214572     1     0     0     0     3   1.560 0.709E+02 0.142E+03 0.000E+00
        86.873669       50.140891      687.111004     1     0     0     0     8   1.560 0.709E+02 0.142E+03 0.000E+00
       164.882229       85.271623      315.923145     7     1     0     0     6   2.981 0.000E+00 0.000E+00 0.411E+02
       124.223368      174.987535      941.331472     1     0     0     0     3   1.560 0.709E+02 0.142E+03 0.000E+00
         3.697465        9.001005       95.018404    20     1     0     0     4   4.230 0.000E+00 0.000E+00 0.409E+02
       125.810482      182.760628       11.392331     4     0     0     0     5   2.470 0.709E-07 0.142E-06 0.983E-02
        57.157888       13.317755     1095.306888     1     0     0     0     8   1.560 0.709E+02 0.142E+03 0.000E+00
       174.773241      170.888497     1101.694913     1     0     0     0     2   1.560 0.709E+02 0.142E+03 0.000E+00
       195.978831      145.166492      632.360464     1     0     0     0     4   1.560 0.709E+02 0.142E+03 0.000E+00
       190.394813       65.531637      691.863143     1     0     0     0     7   1.560 0.709E+02 0.142E+03 0.000E+00
        34.982785       26.131155      546.734331     1     0     0     0     1   1.560 0.709E+02 0.142E+03 0.000E+00
       124.730265       93.082342      685.922826     1     0     0     0     2   1.560 0.709E+02 0.142E+03 0.000E+00
        89.372692       34.712916       91.515563     1     0     0     0     4   1.560 0.709E+02 0.142E+03 0.000E+00
       138.265043       59.339252      458.004926     1     0     0     0     2   1.560 0.709E+02 0.142E+03 0.000E+00
       133.258009       93.648297      351.195643     1     0     0     0     3   1.560 0.709E+02 0.142E+03 0.000E+00
        62.213829      151.863754      471.766665     1     0     0     0     6   1.560 0.709E+02 0.142E+03 0.000E+00
       109.499463       10.721811       84.100135     1     0     0     0     4   1.560 0.709E+02 0.142E+03 0.000E+00
        83.343428      174.958537      776.023293     1     0     0     0     7   1.560 0.709E+02 0.142E+03 0.000E+00
        16.236160       51.339219      475.047764     1     0     0     0     2   1.560 0.709E+02 0.142E+03 0.000E+00
       114.930809        3.892718      677.104296     1     0     0     0     3   1.560 0.709E+02 0.142E+03 0.000E+00
        23.981986        7.675626     1124.865734     1     1     0     0     6   1.558 0.000E+00 0.000E+00 0.356E+05
        87.754951       56.126292       50.298807     1     0     0     0     1   1.560 0.709E+02 0.142E+03 0.000E+00
        99.142127       80.281250      621.241190     1     0     0     0     5   1.560 0.709E+02 0.142E+03 0.000E+00
        60.332588       87.499059     1227.276487     1     0     0     0     8   1.560 0.709E+02 0.142E+03 0.000E+00
       121.412308       90.996646       31.704482     8     0     0     0     4   3.120 0.709E-19 0.142E-18 0.128E-03
        21.823968      120.029879      399.962694     1     0     0     0     3   1.560 0.709E+02 0.142E+03 0.000E+00
       160.302091       42.886795      648.531169     1     0     0     0     7   1.560 0.709E+02 0.142E+03 0.000E+00
       193.564890       75.923301      375.145814     6     0     0     0     6   2.830 0.709E-13 0.142E-12 0.925E-04
        47.891943      171.433056      657.713758     1     0     0     0     4   1.560 0.709E+02 0.142E+03 0.000E+00
       144.305895       38.449484       27.125274     1     0     0     0     7   1.560 0.709E+02 0.142E+03 0.000E+00
       193.403488       39.731455      213.976376     4     1     0     0     6   2.474 0.000E+00 0.000E+00 0.412E+02
        98.481848       18.795083      824.236403     1     0     0     0     8   1.560 0.709E+02 0.142E+03 0.000E+00
        11.926737       56.220754      735.855213     1     0     0     0     7   1.560 0.709E+02 0.142E+03 0.000E+00
       157.880213       13.190712       30.079589     8     0     0     0     3   3.120 0.709E-19 0.142E-18 0.128E-03
       128.492725      139.346569      606.869316     1     0     0     0     3   1.560 0.709E+02 0.142E+03 0.000E+00
        74.782943      137.935080      651.057564     1     0     0     0     5   1.560 0.709E+02 0.142E+03 0.000E+00
        10.247105      163.820770     1050.657906     1     0     0     0     2   1.560 0.709E+02 0.142E+03 0.000E+00
        86.531462       63.361845      903.437806     1     0     0     0     6   1.560 0.709E+02 0.142E+03 0.000E+00
       131.119746      117.252453      968.109118     1     0     0     0     8   1.560 0.709E+02 0.142E+03 0.000E+00
       151.758003       26.571167      146.002679     1     0     0     0     6   1.560 0.709E+02 0.142E+03 0.000E+00
       114.372189        1.451745      421.345683     1     0     0     0     4   1.560 0.709E+02 0.142E+03 0.000E+00
        51.027881      192.807336      329.613982     1     0     0     0     8   1.560 0.709E+02 0.142E+03 0.000E+00
       105.434875      101.835441      855.050533     1     0     0     0     3   1.560 0.709E+02 0.142E+03 0.000E+00
       164.320443       40.294475      360.569252     7     1     0     0     4   2.981 0.000E+00 0.000E+00 0.411E+02
       197.277211      112.712973      170.405824     1     0     0     0     4   1.560 0.709E+02 0.142E+03 0.000E+00
        45.513640       94.031168      475.926190     1     0     0     0     2   1.560 0.709E+02 0.142E+03 0.000E+00
        93.779837       44.516827      726.423589     1     0     0     0     5   1.560 0.709E+02 0.142E+03 0.000E+00
        55.696652      149.570462      760.505294     1     0     0     0     1   1.560 0.709E+02 0.142E+03 0.000E+00
       108.637626       99.521831     1070.797547     1     0     0     0     1   1.560 0.709E+02 0.142E+03 0.000E+00
       153.913460      162.223849      868.462412     1     0     0     0     8   1.560 0.709E+02 0.142E+03 0.000E+00
       173.935502      110.645393      116.278400     9     1     0     0     6   3.241 0.000E+00 0.000E+00 0.410E+02
       182.055261       78.861955      145.372957     1     0     0     0     1   1.560 0.709E+02 0.142E+03 0.000E+00
       187.433588       13.694959      783.982148     1     0     0     0     5   1.560 0.709E+02 0.142E+03 0.000E+00
        26.985167      168.688243      476.412404     1     0     0     0     1   1.560 0.709E+02 0.142E+03 0.000E+00
         6.121773      176.371858      456.131450    10     0     0     0     2   3.360 0.709E-25 0.142E-24 0.633E-07
       171.795905       50.611358      587.680680     1     0     0     0     4   1.560 0.709E+02 0.142E+03 0.000E+00
        79.344629        8.107278      606.152184     1     0     0     0     4   1.560 0.709E+02 0.142E+03 0.000E+00
        90.783239      130.732852      462.477156     1     0     0     0     1   1.560 0.709E+02 0.142E+03 0.000E+00
       190.966067       39.642748      338.490146     1     0     0     0     4   1.560 0.709E+02 0.142E+03 0.000E+00
        95.940114       92.598434      635.063295     1     0     0     0     8   1.560 0.709E+02 0.142E+03 0.000E+00
       125.357491      148.286752      668.569865     1     0     0     0     8   1.560 0.709E+02 0.142E+03 0.000E+00
       145.480299      145.776902      936.195688     1     0     0     0     6   1.560 0.709E+02 0.142E+03 0.000E+00
       103.225015       45.255744      122.893740     6     0     0     0     1   2.830 0.709E-13 0.142E-12 0.925E-04
        82.780331      117.196742      436.814797     8     2     0     0     8   3.117 0.000E+00 0.000E+00 0.658E+02
        37.600369      145.100924      276.979951    11     2     0     0     8   3.466 0.000E+00 0.000E+00 0.655E+02
        47.973690       97.711771      449.153887     1     0     0     0     3   1.560 0.709E+02 0.142E+03 0.000E+00
       108.139347       45.053584     1095.277297     1     0     0     0     5   1.560 0.709E+02 0.142E+03 0.000E+00
        77.544578      191.686149      920.089264     1     0     0     0     1   1.560 0.709E+02 0.142E+03 0.000E+00
        63.888730        2.878081      295.182170     1     0     0     0     8   1.560 0.709E+02 0.142E+03 0.000E+00
       121.253543       18.535693     1259.682088     1     0     0     0     8   1.560 0.709E+02 0.142E+03 0.000E+00
        34.506017       80.474691      291.838076     1     0     0     0     7   1.560 0.709E+02 0.142E+03 0.000E+00
       180.134530      146.903193      892.151624     1     0     0     0     8   1.560 0.709E+02 0.142E+03 0.000E+00
        79.873689      102.852672      591.690966     1     0     0     0     4   1.560 0.709E+02 0.142E+03 0.000E+00
        69.635922      109.473690      497.986206     1     0     0     0     4   1.560 0.709E+02 0.142E+03 0.000E+00
       192.545490       69.269612      212.133413     1     0     0     0     8   1.560 0.709E+02 0.142E+03 0.000E+00
        88.796842      165.608482      551.241396     1     0     0     0     8   1.560 0.709E+02 0.142E+03 0.000E+00
         8.104528       65.801150      486.344546     1     0     0     0     5   1.560 0.709E+02 0.142E+03 0.000E+00
        12.273107       54.119154      202.096519     1     0     0     0     4   1.560 0.709E+02 0.142E+03 0.000E+00
       132.308235       81.246085      975.566302     1     0     0     0     6   1.560 0.709E+02 0.142E+03 0.000E+00
        67.913837       46.040754      665.923716     1     0     0     0     1   1.560 0.709E+02 0.142E+03 0.000E+00
        92.502211      111.002014      223.440963     2     0     0     0     4   1.960 0.709E-01 0.142E+00 0.840E+02
        10.419886        4.778484      734.614492     1     0     0     0     4   1.560 0.709E+02 0.142E+03 0.000E+00
        26.092269       51.271248      424.260945     1     0     0     0     2   1.560 0.709E+02 0.142E+03 0.000E+00
       158.824517      129.117326      400.016324     1     0     0     0     3   1.560 0.709E+02 0.142E+03 0.000E+00
       124.556835      105.845006      876.108388     1     0     0     0     3   1.560 0.709E+02 0.142E+03 0.000E+00
        44.249179       99.906478     1141.310450     1     0     0     0     3   1.560 0.709E+02 0.142E+03 0.000E+00
        98.305007      161.638309      173.160256     1     0     0     0     6   1.560 0.709E+02 0.142E+03 0.000E+00
       140.069445        4.836357      238.028437     8     0     0     0     6   3.120 0.709E-19 0.142E-18 0.128E-03
        12.705660      108.066747      258.698025     1     0     0     0     7   1.560 0.709E+02 0.142E+03 0.000E+00
       135.206925       46.128576      781.387665     1     0     0     0     1   1.560 0.709E+02 0.142E+03 0.000E+00
        76.672351      187.468979      146.925204     1     0     0     0     8   1.560 0.709E+02 0.142E+03 0.000E+00
       140.680438      196.488827      640.726542     1     0     0     0     3   1.560 0.709E+02 0.142E+03 0.000E+00
       194.942997       13.842474        8.725081     5     0     0     0     4   2.660 0.709E-10 0.142E-09 0.347E-02
        42.676901       30.660122      580.187160     1     0     0     0     1   1.560 0.709E+02 0.142E+03 0.000E+00
        95.123463        1.528023      981.201417     1     0     0     0     8   1.560 0.709E+02 0.142E+03 0.000E+00
        94.480021      154.643485     1116.663838     1     0     0     0     5   1.560 0.709E+02 0.142E+03 0.000E+00
       123.224853       56.160658      630.848896     1     0     0     0     2   1.560 0.709E+02 0.142E+03 0.000E+00
       172.280215       13.780209      728.001549     7     1     0     0     4   2.981 0.000E+00 0.000E+00 0.411E+02
       159.281487      157.939057      448.097657     1     0     0     0     1   1.560 0.709E+02 0.142E+03 0.000E+00
       184.763491       81.845715      839.764322     1     0     0     0     8   1.560 0.709E+02 0.142E+03 0.000E+00
        74.179391       89.629687      722.144801     1     0     0     0     3   1.560 0.709E+02 0.142E+03 0.000E+00
       134.105114      119.305737      300.874929     1     0     0     0     1   1.560 0.709E+02 0.142E+03 0.000E+00
        71.672782       10.838555      150.068323     6     1     0     0     1   2.832 0.000E+00 0.000E+00 0.411E+02
       144.520619       16.846259      214.169340     1     0     0     0     2   1.560 0.709E+02 0.142E+03 0.000E+00
        76.025321      136.022427      635.433691     1     0     0     0     4   1.560 0.709E+02 0.142E+03 0.000E+00
       171.570020       28.259467      626.285570     1     0     0     0     8   1.560 0.709E+02 0.142E+03 0.000E+00
       187.841032      162.133709      187.766002     1     0     0     0     8   1.560 0.709E+02 0.142E+03 0.000E+00
        81.611424      108.816071      359.964527     1     0     0     0     1   1.560 0.709E+02 0.142E+03 0.000E+00
        48.931699      132.680405      509.424216     2     0     0     0     3   1.960 0.709E-01 0.142E+00 0.840E+02
        22.681364       31.358797      795.970621     1     0     0     0     2   1.560 0.709E+02 0.142E+03 0.000E+00
        29.476177       54.655156      427.644853     1     0     0     0     4   1.560 0.709E+02 0.142E+03 0.000E+00
       137.160969        7.618150      569.008581     1     0     0     0     7   1.560 0.709E+02 0.142E+03 0.000E+00
       174.858614       93.690048      376.972409     1     0     0     0     2   1.560 0.709E+02 0.142E+03 0.000E+00
       178.815986      193.268829      271.207932     1     0     0     0     1   1.560 0.709E+02 0.142E+03 0.000E+00
        33.318336      151.498708      519.669141     1     0     0     0     1   1.560 0.709E+02 0.142E+03 0.000E+00
        78.823243        3.250474      685.270924     7     1     0     0     2   2.981 0.000E+00 0.000E+00 0.411E+02
        86.482725       57.297266      671.204915     1     0     0     0     8   1.560 0.709E+02 0.142E+03 0.000E+00
       166.467385      139.679504      634.203548     1     0     0     0     4   1.560 0.709E+02 0.142E+03 0.000E+00
       117.007587      112.022703      715.080598     1     0     0     0     6   1.560 0.709E+02 0.142E+03 0.000E+00
       173.453730       67.070776     1159.618463     1     0     0     0     4   1.560 0.709E+02 0.142E+03 0.000E+00
       123.613806       11.828915      566.319122     1     0     0     0     2   1.560 0.709E+02 0.142E+03 0.000E+00
       146.906728       75.183315     1229.671533     1     0     0     0     8   1.560 0.709E+02 0.142E+03 0.000E+00
        37.438213      164.170376      163.026931     6     0     0     0     1   2.830 0.709E-13 0.142E-12 0.925E-04
        64.270158      126.517429      329.642446     1     0     0     0     6   1.560 0.709E+02 0.142E+03 0.000E+00
        98.604577       74.030503      752.408140     1     0     0     0     7   1.560 0.709E+02 0.142E+03 0.000E+00
       118.998612       65.408299     1106.574078     1     0     0     0     8   1.560 0.709E+02 0.142E+03 0.000E+00
        72.259141      129.945145      715.265326     1     0     0     0     3   1.560 0.709E+02 0.142E+03 0.000E+00
       193.194101       76.083835      839.601892     1     0     0     0     5   1.560 0.709E+02 0.142E+03 0.000E+00
        90.605065      179.407490     1187.857748     1     0     0     0     8   1.560 0.709E+02 0.142E+03 0.000E+00
        55.962491      138.100259      833.158902     1     0     0     0     7   1.560 0.709E+02 0.142E+03 0.000E+00
        84.116284      129.127041      109.573333     1     0     0     0     6   1.560 0.709E+02 0.142E+03 0.000E+00
       155.613573      163.632199      874.216154     1     0     0     0     1   1.560 0.709E+02 0.142E+03 0.000E+00
        57.432497       29.264430      286.905468     1     0     0     0     7   1.560 0.709E+02 0.142E+03 0.000E+00
       122.073639       58.355345      615.814358     1     0     0     0     6   1.560 0.709E+02 0.142E+03 0.000E+00
        92.102489       31.136048      267.191370     1     0     0     0     8   1.560 0.709E+02 0.142E+03 0.000E+00
       134.682660      141.191344      688.414167     1     0     0     0     2   1.560 0.709E+02 0.142E+03 0.000E+00
        43.746687       44.725203      804.088844     1     0     0     0     2   1.560 0.709E+02 0.142E+03 0.000E+00
       116.362750      187.830737      765.030319     1     0     0     0     8   1.560 0.709E+02 0.142E+03 0.000E+00
         5.741761       14.861031       22.474583     9     0     0     0     6   3.240 0.709E-22 0.142E-21 0.157E-06
       136.220162      153.341702      456.621539     1     0     0     0     1   1.560 0.709E+02 0.142E+03 0.000E+00
       104.461751      143.717763      846.859395     1     0     0     0     1   1.560 0.709E+02 0.142E+03 0.000E+00
        38.680041       87.493435      275.049265     1     0     0     0     3   1.560 0.709E+02 0.142E+03 0.000E+00
         7.944937       29.208525      664.854051     1     0     0     0     8   1.560 0.709E+02 0.142E+03 0.000E+00
       126.193124      128.258736      635.685286     1     0     0     0     1   1.560 0.709E+02 0.142E+03 0.000E+00
       153.599658      183.425135      662.127390     1     0     0     0     5   1.560 0.709E+02 0.142E+03 0.000E+00
       154.409176       93.324366       72.119697     5     0     0     0     2   2.660 0.709E-10 0.142E-09 0.347E-02
       193.149707       48.753275      516.715653     1     0     0     0     2   1.560 0.709E+02 0.142E+03 0.000E+00
         8.332403       26.789034      827.056763     1     0     0     0     8   1.560 0.709E+02 0.142E+03 0.000E+00
        45.883741       47.550250      131.413381     1     0     0     0     7   1.560 0.709E+02 0.142E+03 0.000E+00
        21.097273      191.411043      780.457163     1     0     0     0     2   1.560 0.709E+02 0.142E+03 0.000E+00
       129.068781       45.942443      366.161557     8     0     0     0     6   3.120 0.709E-19 0.142E-18 0.128E-03
       119.242967       86.787921      175.530909     1     0     0     0     3   1.560 0.709E+02 0.142E+03 0.000E+00
       173.414736       13.159032      674.242469     1     0     0     0     4   1.560 0.709E+02 0.142E+03 0.000E+00
       175.867615      148.306468      338.978237     1     0     0     0     2   1.560 0.709E+02 0.142E+03 0.000E+00
       130.369350      116.959280     1058.677891     1     0     0     0     1   1.560 0.709E+02 0.142E+03 0.000E+00
       176.745709      186.296684      777.854382     1     0     0     0     7   1.560 0.709E+02 0.142E+03 0.000E+00
       137.788623      123.232820      281.256183     1     0     0     0     6   1.560 0.709E+02 0.142E+03 0.000E+00
       105.728681      103.636335     1020.186272     1     0     0     0     2   1.560 0.709E+02 0.142E+03 0.000E+00
        34.900099      129.089072      783.831248     1     0     0     0     6   1.560 0.709E+02 0.142E+03 0.000E+00
        16.725593       47.687684      839.385811     1     0     0     0     2   1.560 0.709E+02 0.142E+03 0.000E+00
       167.222113      167.794508       27.253526     9     0     0     0     2   3.240 0.709E-22 0.142E-21 0.157E-06
       176.627008      117.447753       58.491326     1     0     0     0     4   1.560 0.709E+02 0.142E+03 0.000E+00
       178.960710      147.651456      480.582997     1     0     0     0     4   1.560 0.709E+02 0.142E+03 0.000E+00
        24.951907        6.917095      658.630947     1     0     0     0     7   1.560 0.709E+02 0.142E+03 0.000E+00
        36.494766       43.378758      833.956348     1     0     0     0     2   1.560 0.709E+02 0.142E+03 0.000E+00
       139.261330      112.832462      832.956559     1     0     0     0     8   1.560 0.709E+02 0.142E+03 0.000E+00
        91.608418      168.743674       66.359693    15     0     0     0     2   3.840 0.709E-40 0.142E-39 0.275E-08
       143.681028      168.114284      756.156931     1     0     0     0     5   1.560 0.709E+02 0.142E+03 0.000E+00
        19.489798       54.318022      146.558656     1     0     0     0     4   1.560 0.709E+02 0.142E+03 0.000E+00
       140.792342       10.296370      285.240774     1     0     0     0     1   1.560 0.709E+02 0.142E+03 0.000E+00
        84.738614      179.701774      626.091999     1     0     0     0     7   1.560 0.709E+02 0.142E+03 0.000E+00
       125.987559      123.194728      540.007277     1     0     0     0     8   1.560 0.709E+02 0.142E+03 0.000E+00
       149.649412      140.541938      288.096902     1     0     0     0     4   1.560 0.709E+02 0.142E+03 0.000E+00
       184.989272       25.736487      453.463100     1     0     0     0     6   1.560 0.709E+02 0.142E+03 0.000E+00
         1.465309       18.122528      543.839231     1     0     0     0     6   1.560 0.709E+02 0.142E+03 0.000E+00
        87.144892       64.781150      464.538920     8     0     0     0     4   3.120 0.709E-19 0.142E-18 0.128E-03
         9.957905      150.863524      389.219647    13     1     0     0     2   3.664 0.000E+00 0.000E+00 0.403E+01
        52.311557      137.705432      737.367483     1     0     0     0     3   1.560 0.709E+02 0.142E+03 0.000E+00
         9.171643      163.523827     1372.407550     1     0     0     0     7   1.560 0.709E+02 0.142E+03 0.000E+00
       135.778857       69.168266      960.776531     1     0     0     0     4   1.560 0.709E+02 0.142E+03 0.000E+00
       165.929962       41.970692      146.606374     1     0     0     0     6   1.560 0.709E+02 0.142E+03 0.000E+00
        34.790560      176.453087      378.155229     1     0     0     0     4   1.560 0.709E+02 0.142E+03 0.000E+00
        85.299412        8.985649      531.463356     1     0     0     0     7   1.560 0.709E+02 0.142E+03 0.000E+00
       164.824786      199.793657      184.303571    14     2     0     0     1   3.756 0.000E+00 0.000E+00 0.654E+02
        40.128771       65.020108     1417.572604     1     0     0     0     8   1.560 0.709E+02 0.142E+03 0.000E+00
       185.255893       83.767581       99.541360    10     0     0     0     6   3.360 0.709E-25 0.142E-24 0.633E-07
        57.512291      154.753235      739.262165     1     0     0     0     5   1.560 0.709E+02 0.142E+03 0.000E+00
       106.344862      182.771551      465.553711    10     1     0     0     8   3.357 0.000E+00 0.000E+00 0.410E+02
       119.177315      151.209857      761.115766     1     0     0     0     7   1.560 0.709E+02 0.142E+03 0.000E+00