ITEM: TIMESTEP
0
ITEM: NUMBER OF ATOMS
         648
ITEM: BOX BOUNDS pp pp pp
  0.0000000E+00   200.000000000000     
  0.0000000E+00   200.000000000000     
  0.0000000E+00   5000.00000000000     
ITEM: ATOMS x y z f1 f2 f3 f4 orient radius rate_mig rate_rot rate_emit
       140.998689       86.963348      101.502835     7     0     0     0     4   2.980 0.709E-16 0.142E-15 0.189E-02
        96.703345      139.488270     1306.828320     1     0     0     0     8   1.560 0.709E+02 0.142E+03 0.000E+00
        18.077024       95.755857      327.978975    17     0     0     0     4   4.010 0.709E-46 0.142E-45 0.116E-08
       166.752536       95.200703     1055.322315     1     0     0     0     1   1.560 0.709E+02 0.142E+03 0.000E+00
       142.883409      166.795325      959.972575     1     0     0     0     5   1.560 0.709E+02 0.142E+03 0.000E+00
       110.189985      168.652653     1136.621574     1     0     0     0     2   1.560 0.709E+02 0.142E+03 0.000E+00
        53.686581       88.143623      695.932070    19     0     0     0     2   4.160 0.709E-52 0.142E-51 0.553E-09
       197.666948       80.736528      489.120152    16     0     0     0     5   3.930 0.709E-43 0.142E-42 0.175E-08
       172.751571      139.450221      943.916150     1     0     0     0     2   1.560 0.709E+02 0.142E+03 0.000E+00
        42.961863      171.710742     1109.857829     1     0     0     0     6   1.560 0.709E+02 0.142E+03 0.000E+00
        36.233103       11.928188     1346.420277     1     0     0     0     1   1.560 0.709E+02 0.142E+03 0.000E+00
       191.645150      195.307816      230.540179    16     0     0     0     1   3.930 0.709E-43 0.142E-42 0.175E-08
       156.951282      111.389702      216.727265    19     0     0     0     7   4.160 0.709E-52 0.142E-51 0.553E-09
       185.426611       31.295317      486.032669    18     0     0     0     2   4.080 0.709E-49 0.142E-48 0.788E-09
       116.105942        4.551717      458.572817     9     0     0     0     8   3.240 0.709E-22 0.142E-21 0.157E-06
        74.805424      110.268079     1209.072546     1     0     0     0     2   1.560 0.709E+02 0.142E+03 0.000E+00
       177.183952       23.018135     1584.647995     1     0     0     0     7   1.560 0.709E+02 0.142E+03 0.000E+00
        98.237489        4.501858      325.001990     8     0     0     0     6   3.120 0.709E-19 0.142E-18 0.128E-03
        73.755508      155.149017     1152.833187     1     0     0     0     4   1.560 0.709E+02 0.142E+03 0.000E+00
        28.682362      100.261744       39.360714    18     0     0     0     8   4.080 0.709E-49 0.142E-48 0.788E-09
       135.756763       98.162264      110.994552     9     0     0     0     1   3.240 0.709E-22 0.142E-21 0.157E-06
        19.254229       79.038506      189.797689    18     0     0     0     3   4.080 0.709E-49 0.142E-48 0.788E-09
       163.807706        1.187138      411.445303     8     0     0     0     1   3.120 0.709E-19 0.142E-18 0.128E-03
       195.264241      151.477845     1177.059151     1     0     0     0     1   1.560 0.709E+02 0.142E+03 0.000E+00
       106.519136      151.572236     1369.789147     1     0     0     0     5   1.560 0.709E+02 0.142E+03 0.000E+00
        64.169159       44.376127       27.088228    12     0     0     0     1   3.570 0.709E-31 0.142E-30 0.146E-07
       132.869563       89.044549     1411.313429     1     0     0     0     7   1.560 0.709E+02 0.142E+03 0.000E+00
        18.240787       13.669259     1393.882348     1     0     0     0     8   1.560 0.709E+02 0.142E+03 0.000E+00
       189.171790       45.162502     1116.039760     1     0     0     0     1   1.560 0.709E+02 0.142E+03 0.000E+00
        98.423772      141.957127       23.387282     8     0     0     0     2   3.120 0.709E-19 0.142E-18 0.128E-03
       114.330426      156.677835     1257.549742     1     0     0     0     1   1.560 0.709E+02 0.142E+03 0.000E+00
       141.897536       63.343014      565.356000    13     0     0     0     8   3.660 0.709E-34 0.142E-33 0.784E-08
        32.192202      118.320390      682.922112    13     0     0     0     5   3.660 0.709E-34 0.142E-33 0.784E-08
       120.531350       69.535966      495.664905     9     0     0     0     2   3.240 0.709E-22 0.142E-21 0.157E-06
        73.705888       93.618278     1448.868384     1     0     0     0     7   1.560 0.709E+02 0.142E+03 0.000E+00
         2.543693      124.781878     1290.912974     1     0     0     0     2   1.560 0.709E+02 0.142E+03 0.000E+00
        24.010178       12.065779       94.375933    16     0     0     0     4   3.930 0.709E-43 0.142E-42 0.175E-08
       119.818630      158.820409     1183.468928     1     0     0     0     1   1.560 0.709E+02 0.142E+03 0.000E+00
       125.251883       48.286411      660.119129    27     0     0     0     1   4.680 0.709E-76 0.142E-75 0.655E-10
       169.600259      190.786053       58.845924     9     0     0     0     4   3.240 0.709E-22 0.142E-21 0.157E-06
       101.428433      186.332695      220.804214    13     0     0     0     8   3.660 0.709E-34 0.142E-33 0.784E-08
       104.844372      108.989624     1245.664053     1     0     0     0     7   1.560 0.709E+02 0.142E+03 0.000E+00
       184.199897       33.206505      975.533451     1     0     0     0     8   1.560 0.709E+02 0.142E+03 0.000E+00
       154.114390      184.525554       75.340852    13     0     0     0     8   3.660 0.709E-34 0.142E-33 0.784E-08
        83.069466       91.154192      385.800169    10     0     0     0     3   3.360 0.709E-25 0.142E-24 0.633E-07
       148.754748      156.993643     1159.411518     1     0     0     0     4   1.560 0.709E+02 0.142E+03 0.000E+00
       120.053956       52.522876      703.534843    22     0     0     0     8   4.370 0.709E-61 0.142E-60 0.219E-09
       158.292624       78.586338      415.084022    19     0     0     0     7   4.160 0.709E-52 0.142E-51 0.553E-09
       148.646724       11.381769      118.995798    10     0     0     0     6   3.360 0.709E-25 0.142E-24 0.633E-07
       150.734745       44.339680      539.575542    12     0     0     0     3   3.570 0.709E-31 0.142E-30 0.146E-07
        20.151148      154.984344     1202.884006     1     0     0     0     4   1.560 0.709E+02 0.142E+03 0.000E+00
       170.898369      163.056464      297.043522    11     0     0     0     5   3.470 0.709E-28 0.142E-27 0.290E-07
        53.647173      107.492386      400.707070    11     0     0     0     7   3.470 0.709E-28 0.142E-27 0.290E-07
       103.911923      185.758851      292.362889     4     0     0     0     5   2.470 0.709E-07 0.142E-06 0.983E-02
         4.254788      135.226066      559.526675    19     0     0     0     4   4.160 0.709E-52 0.142E-51 0.553E-09
       194.953378       31.553957      120.838931    11     0     0     0     3   3.470 0.709E-28 0.142E-27 0.290E-07
        90.409988       14.959585      315.807017    10     0     0     0     4   3.360 0.709E-25 0.142E-24 0.633E-07
         2.470076        0.330357      180.536418     8     0     0     0     5   3.120 0.709E-19 0.142E-18 0.128E-03
       184.249113       59.305449     1310.142036     1     0     0     0     8   1.560 0.709E+02 0.142E+03 0.000E+00
        88.474965       34.211840      298.612400     9     0     0     0     6   3.240 0.709E-22 0.142E-21 0.157E-06
        84.246759      164.708567      768.478774    23     0     0     0     2   4.430 0.709E-64 0.142E-63 0.167E-09
        94.866926        2.365819       19.328712     5     0     0     0     6   2.660 0.709E-10 0.142E-09 0.347E-02
       176.224414      108.165688     1152.164539     1     0     0     0     4   1.560 0.709E+02 0.142E+03 0.000E+00
       156.468694       95.568496       37.862730    10     0     0     0     6   3.360 0.709E-25 0.142E-24 0.633E-07
        78.005218      183.157072      213.472464     5     0     0     0     8   2.660 0.709E-10 0.142E-09 0.347E-02
       184.491451      157.138314      320.519125    12     0     0     0     1   3.570 0.709E-31 0.142E-30 0.146E-07
       136.686782      140.277981     1889.343098     1     0     0     0     4   1.560 0.709E+02 0.142E+03 0.000E+00
       175.505253      198.001789      114.025482    12     0     0     0     8   3.570 0.709E-31 0.142E-30 0.146E-07
        27.483130      118.591293     1148.799833     1     0     0     0     1   1.560 0.709E+02 0.142E+03 0.000E+00
       167.452353       19.443239     1262.372789     1     0     0     0     8   1.560 0.709E+02 0.142E+03 0.000E+00
        20.533618       83.983208       73.034931    10     0     0     0     5   3.360 0.709E-25 0.142E-24 0.633E-07
        21.787236      148.157159      189.561989     6     0     0     0     1   2.830 0.709E-13 0.142E-12 0.925E-04
         9.034998       29.961261      372.519227    12     0     0     0     8   3.570 0.709E-31 0.142E-30 0.146E-07
       134.655475        1.555153     1020.676891     1     0     0     0     1   1.560 0.709E+02 0.142E+03 0.000E+00
        86.285633      164.519133      163.374767    14     0     0     0     2   3.760 0.709E-37 0.142E-36 0.453E-08
        49.351751      199.911892      323.751254     8     0     0     0     8   3.120 0.709E-19 0.142E-18 0.128E-03
        88.623267      144.174665       88.564805    12     0     0     0     5   3.570 0.709E-31 0.142E-30 0.146E-07
       142.663830      129.976017      590.271989    23     0     0     0     1   4.430 0.709E-64 0.142E-63 0.167E-09
       129.437538      141.120488     1119.972987     1     0     0     0     3   1.560 0.709E+02 0.142E+03 0.000E+00
       136.157686      115.145489      382.870616     6     0     0     0     6   2.830 0.709E-13 0.142E-12 0.925E-04
       140.199234        4.084596      237.410045    11     0     0     0     2   3.470 0.709E-28 0.142E-27 0.290E-07
        41.850842       45.787752     1295.060008     1     0     0     0     1   1.560 0.709E+02 0.142E+03 0.000E+00
       112.923843      192.396376     1021.396087     1     0     0     0     5   1.560 0.709E+02 0.142E+03 0.000E+00
        38.052992      144.469370      277.458803    16     0     0     0     5   3.930 0.709E-43 0.142E-42 0.175E-08
        58.369825      178.232436       63.643941     9     0     0     0     7   3.240 0.709E-22 0.142E-21 0.157E-06
        66.468185       44.715305      881.186843     1     0     0     0     1   1.560 0.709E+02 0.142E+03 0.000E+00
       123.406711       12.659939     1275.009883     1     0     0     0     1   1.560 0.709E+02 0.142E+03 0.000E+00
       101.630774      133.600193      274.102567    11     0     0     0     5   3.470 0.709E-28 0.142E-27 0.290E-07
       139.698075      159.703354      387.870412     8     0     0     0     6   3.120 0.709E-19 0.142E-18 0.128E-03
       190.905681       76.212968      942.179252     1     0     0     0     5   1.560 0.709E+02 0.142E+03 0.000E+00
       134.691756       73.108936      514.584422    20     0     0     0     1   4.230 0.709E-55 0.142E-54 0.398E-09
        69.915281       31.162092      407.321537    11     0     0     0     4   3.470 0.709E-28 0.142E-27 0.290E-07
        36.055232      158.460714      136.909562     8     0     0     0     8   3.120 0.709E-19 0.142E-18 0.128E-03
        17.214158      161.105156      239.248219    10     0     0     0     8   3.360 0.709E-25 0.142E-24 0.633E-07
       108.897215       81.399551     1444.140895     1     0     0     0     4   1.560 0.709E+02 0.142E+03 0.000E+00
        47.815967       75.836501      316.915706     9     0     0     0     6   3.240 0.709E-22 0.142E-21 0.157E-06
       182.536515      123.660241      154.057776    12     0     0     0     3   3.570 0.709E-31 0.142E-30 0.146E-07
        47.489175      139.562671     1089.724880     1     0     0     0     5   1.560 0.709E+02 0.142E+03 0.000E+00
        63.585400      127.145171      101.709727    11     0     0     0     8   3.470 0.709E-28 0.142E-27 0.290E-07
        65.328210       53.206088     1276.775979     1     0     0     0     6   1.560 0.709E+02 0.142E+03 0.000E+00
       196.855819      130.746666      151.344618    13     0     0     0     3   3.660 0.709E-34 0.142E-33 0.784E-08
        62.596376      142.325975      174.362461    17     0     0     0     6   4.010 0.709E-46 0.142E-45 0.116E-08
       180.116638      148.322561     1363.232703     1     0     0     0     3   1.560 0.709E+02 0.142E+03 0.000E+00
       171.750180       42.541107      844.039197    10     0     0     0     1   3.360 0.709E-25 0.142E-24 0.633E-07
       167.599592       13.913029      255.831142     7     0     0     0     8   2.980 0.709E-16 0.142E-15 0.189E-02
        42.343478      122.397611     1096.368028     1     0     0     0     2   1.560 0.709E+02 0.142E+03 0.000E+00
       123.021048       21.506125     1154.196587     1     0     0     0     2   1.560 0.709E+02 0.142E+03 0.000E+00
       176.025843      181.121252      988.590222     1     0     0     0     8   1.560 0.709E+02 0.142E+03 0.000E+00
       137.093185      190.939560     1036.659019    23     0     0     0     3   4.430 0.709E-64 0.142E-63 0.167E-09
       156.833165       82.166430      500.425169    12     0     0     0     3   3.570 0.709E-31 0.142E-30 0.146E-07
       106.579410      102.054590       59.121998     6     0     0     0     2   2.830 0.709E-13 0.142E-12 0.925E-04
       115.001031      143.128887     1297.891241     1     0     0     0     8   1.560 0.709E+02 0.142E+03 0.000E+00
        28.731602        2.575431      960.618061    18     0     0     0     2   4.080 0.709E-49 0.142E-48 0.788E-09
       124.121270       61.993981      212.204042    14     0     0     0     2   3.760 0.709E-37 0.142E-36 0.453E-08
       196.917055      117.837396     1055.642609     1     0     0     0     3   1.560 0.709E+02 0.142E+03 0.000E+00
       180.928504       22.893776      498.095555    14     0     0     0     4   3.760 0.709E-37 0.142E-36 0.453E-08
        65.967448       49.346885      650.917390    21     0     0     0     6   4.300 0.709E-58 0.142E-57 0.292E-09
       146.575609       59.776505     1401.897577     1     0     0     0     6   1.560 0.709E+02 0.142E+03 0.000E+00
         5.483126       79.848088     1037.352050     1     0     0     0     6   1.560 0.709E+02 0.142E+03 0.000E+00
       145.117399      109.100005      980.024649     1     0     0     0     2   1.560 0.709E+02 0.142E+03 0.000E+00
        52.207855       93.480837     1238.269544     1     0     0     0     4   1.560 0.709E+02 0.142E+03 0.000E+00
       134.295371      139.322942      167.019906    11     0     0     0     4   3.470 0.709E-28 0.142E-27 0.290E-07
        10.605582       84.411499      697.701822    15     0     0     0     3   3.840 0.709E-40 0.142E-39 0.275E-08
        44.811845       82.232226      853.513118    15     0     0     0     6   3.840 0.709E-40 0.142E-39 0.275E-08
       190.789427       43.991380     1365.004541     1     0     0     0     4   1.560 0.709E+02 0.142E+03 0.000E+00
       183.351078      137.133445     1319.049931     1     0     0     0     1   1.560 0.709E+02 0.142E+03 0.000E+00
        79.525387      166.645840       31.563814     6     0     0     0     5   2.830 0.709E-13 0.142E-12 0.925E-04
        33.917894      128.143632      806.342583    24     0     0     0     4   4.500 0.709E-67 0.142E-66 0.130E-09
        80.195313       28.451130      592.027274    19     0     0     0     8   4.160 0.709E-52 0.142E-51 0.553E-09
        80.422664      138.339351      756.990888    16     0     0     0     6   3.930 0.709E-43 0.142E-42 0.175E-08
       173.919202      110.405202      116.268054    12     0     0     0     3   3.570 0.709E-31 0.142E-30 0.146E-07
        54.975127       27.033315       91.402026    14     0     0     0     2   3.760 0.709E-37 0.142E-36 0.453E-08
       104.231474      128.312817       47.057942    11     0     0     0     4   3.470 0.709E-28 0.142E-27 0.290E-07
        71.341639      169.224827     1180.429057     1     0     0     0     7   1.560 0.709E+02 0.142E+03 0.000E+00
        92.310071       32.994105     1367.811691     1     0     0     0     8   1.560 0.709E+02 0.142E+03 0.000E+00
       157.880213       13.190712       30.079589     8     0     0     0     4   3.120 0.709E-19 0.142E-18 0.128E-03
        82.658531      117.489808      437.260206    13     0     0     0     7   3.660 0.709E-34 0.142E-33 0.784E-08
        68.682402      156.666266     1198.757450     1     0     0     0     1   1.560 0.709E+02 0.142E+03 0.000E+00
        87.038819      100.680929     1161.580122     1     0     0     0     7   1.560 0.709E+02 0.142E+03 0.000E+00
        78.948477      186.130533      270.538431     9     0     0     0     8   3.240 0.709E-22 0.142E-21 0.157E-06
       162.843538       93.147907     1167.122520     1     0     0     0     3   1.560 0.709E+02 0.142E+03 0.000E+00
       119.306304       22.166767     1247.027869     1     0     0     0     4   1.560 0.709E+02 0.142E+03 0.000E+00
        52.189601       96.775709      434.766350    15     0     0     0     1   3.840 0.709E-40 0.142E-39 0.275E-08
       167.999637       35.868728      870.298856     1     0     0     0     8   1.560 0.709E+02 0.142E+03 0.000E+00
       106.199210      145.446176      375.731000    11     0     0     0     6   3.470 0.709E-28 0.142E-27 0.290E-07
       156.294016        8.339443      228.344728     6     0     0     0     2   2.830 0.709E-13 0.142E-12 0.925E-04
        33.949085      189.655045      289.120468     6     0     0     0     2   2.830 0.709E-13 0.142E-12 0.925E-04
       103.047323       65.146545      913.936553     1     0     0     0     8   1.560 0.709E+02 0.142E+03 0.000E+00
       102.233426       70.286043     1244.599571     1     0     0     0     2   1.560 0.709E+02 0.142E+03 0.000E+00
       187.099156       25.839670      594.451228    18     0     0     0     5   4.080 0.709E-49 0.142E-48 0.788E-09
       156.156103      158.149974      228.244611    11     0     0     0     1   3.470 0.709E-28 0.142E-27 0.290E-07
       140.277058      119.318535      725.001754    24     0     0     0     7   4.500 0.709E-67 0.142E-66 0.130E-09
        14.699817      191.919410      818.711619    14     0     0     0     4   3.760 0.709E-37 0.142E-36 0.453E-08
       167.082795      130.484526      510.113699    10     0     0     0     1   3.360 0.709E-25 0.142E-24 0.633E-07
       172.303838      117.543909      242.596405     8     0     0     0     8   3.120 0.709E-19 0.142E-18 0.128E-03
       167.800373      167.717694       27.241053    11     0     0     0     4   3.470 0.709E-28 0.142E-27 0.290E-07
       124.471473       44.007639      202.775747    17     0     0     0     2   4.010 0.709E-46 0.142E-45 0.116E-08
       166.658570       84.256192      769.351127    18     0     0     0     2   4.080 0.709E-49 0.142E-48 0.788E-09
       162.106260       26.007547      264.802995    12     0     0     0     7   3.570 0.709E-31 0.142E-30 0.146E-07
        65.939235      141.501915     1276.601925     1     0     0     0     2   1.560 0.709E+02 0.142E+03 0.000E+00
        81.636792       71.960602      726.160647    12     0     0     0     7   3.570 0.709E-31 0.142E-30 0.146E-07
       186.506977       27.125986      560.284272    23     0     0     0     4   4.430 0.709E-64 0.142E-63 0.167E-09
         7.068869      105.832722       86.135320    13     0     0     0     1   3.660 0.709E-34 0.142E-33 0.784E-08
       155.950058      114.629768     1190.697488     1     0     0     0     5   1.560 0.709E+02 0.142E+03 0.000E+00
       133.901392      104.550800      300.260916     9     0     0     0     7   3.240 0.709E-22 0.142E-21 0.157E-06
       107.951091      163.701692     1184.254863     1     0     0     0     4   1.560 0.709E+02 0.142E+03 0.000E+00
       145.937555        1.583386      388.653396     6     0     0     0     6   2.830 0.709E-13 0.142E-12 0.925E-04
        54.935274      102.769288     1602.963608     1     0     0     0     7   1.560 0.709E+02 0.142E+03 0.000E+00
        45.596529      124.766093     1304.156779     1     0     0     0     8   1.560 0.709E+02 0.142E+03 0.000E+00
       130.932785      173.068367      761.433212     1     0     0     0     2   1.560 0.709E+02 0.142E+03 0.000E+00
       189.072257       71.958590     1244.664212     1     0     0     0     1   1.560 0.709E+02 0.142E+03 0.000E+00
        25.417291      157.388845     1212.502643     1     0     0     0     1   1.560 0.709E+02 0.142E+03 0.000E+00
       174.540021      182.971298      217.515010    10     0     0     0     2   3.360 0.709E-25 0.142E-24 0.633E-07
         8.189167       68.951747     1142.406086     1     0     0     0     7   1.560 0.709E+02 0.142E+03 0.000E+00
       122.011297      186.061425       87.832890    10     0     0     0     1   3.360 0.709E-25 0.142E-24 0.633E-07
        63.514784        9.564383      426.956287     9     0     0     0     3   3.240 0.709E-22 0.142E-21 0.157E-06
       122.847730      134.822810       83.015571    11     0     0     0     7   3.470 0.709E-28 0.142E-27 0.290E-07
        59.942700       23.938973      303.833771    18     0     0     0     2   4.080 0.709E-49 0.142E-48 0.788E-09
       195.563264      126.544853     1500.348133     1     0     0     0     1   1.560 0.709E+02 0.142E+03 0.000E+00
       163.979689      116.460209       47.705366    11     0     0     0     2   3.470 0.709E-28 0.142E-27 0.290E-07
       135.785741       32.598003     1366.538002     1     0     0     0     1   1.560 0.709E+02 0.142E+03 0.000E+00
         3.374636       24.394018     1168.113173     1     0     0     0     3   1.560 0.709E+02 0.142E+03 0.000E+00
       121.818578       42.282754      474.555443    11     0     0     0     8   3.470 0.709E-28 0.142E-27 0.290E-07
        72.660095      132.359960      253.137131     7     0     0     0     6   2.980 0.709E-16 0.142E-15 0.189E-02
        65.273638       47.718646       48.153904    12     0     0     0     4   3.570 0.709E-31 0.142E-30 0.146E-07
       134.742549      198.787342      189.410627    13     0     0     0     6   3.660 0.709E-34 0.142E-33 0.784E-08
       131.003527      135.578536      417.679856    15     0     0     0     4   3.840 0.709E-40 0.142E-39 0.275E-08
       151.642140      137.794290      276.918627     7     0     0     0     6   2.980 0.709E-16 0.142E-15 0.189E-02
       133.722399      128.123543      873.629860    15     0     0     0     5   3.840 0.709E-40 0.142E-39 0.275E-08
       186.445515      107.642694     1387.366724     1     0     0     0     2   1.560 0.709E+02 0.142E+03 0.000E+00
        92.433881      170.491461      138.245294    13     0     0     0     5   3.660 0.709E-34 0.142E-33 0.784E-08
        17.280690        7.304102     1102.300268     1     0     0     0     4   1.560 0.709E+02 0.142E+03 0.000E+00
        39.214112       34.420921      130.047918    18     0     0     0     2   4.080 0.709E-49 0.142E-48 0.788E-09
        21.455098      170.980206      143.003419    13     0     0     0     8   3.660 0.709E-34 0.142E-33 0.784E-08
        27.083587       16.609617      372.239203     9     0     0     0     2   3.240 0.709E-22 0.142E-21 0.157E-06
       188.864976      144.874097     1414.215980     1     0     0     0     5   1.560 0.709E+02 0.142E+03 0.000E+00
       132.356207       38.733164       49.112737    15     0     0     0     3   3.840 0.709E-40 0.142E-39 0.275E-08
       174.794023      145.135793      574.364041     7     0     0     0     5   2.980 0.709E-16 0.142E-15 0.189E-02
         3.589133        9.045017       94.841187    23     0     0     0     5   4.430 0.709E-64 0.142E-63 0.167E-09
        93.024411      139.894656      625.214478    18     0     0     0     3   4.080 0.709E-49 0.142E-48 0.788E-09
        84.815469       17.530663      857.133079    23     0     0     0     8   4.430 0.709E-64 0.142E-63 0.167E-09
        83.675030       86.362751      489.752464    17     0     0     0     5   4.010 0.709E-46 0.142E-45 0.116E-08
       113.619710       87.067895     1152.794326     1     0     0     0     3   1.560 0.709E+02 0.142E+03 0.000E+00
       191.647004      106.957208       41.023411    14     0     0     0     5   3.760 0.709E-37 0.142E-36 0.453E-08
       186.260460       64.783611     1439.166800     1     0     0     0     3   1.560 0.709E+02 0.142E+03 0.000E+00
       183.365511       87.875195       66.529253     9     0     0     0     3   3.240 0.709E-22 0.142E-21 0.157E-06
       157.066830       30.971370      286.115563    11     0     0     0     2   3.470 0.709E-28 0.142E-27 0.290E-07
        16.698661      154.469899      359.965798    10     0     0     0     7   3.360 0.709E-25 0.142E-24 0.633E-07
       140.801670       65.957009     1583.481444     1     0     0     0     6   1.560 0.709E+02 0.142E+03 0.000E+00
        74.651841       10.524273      640.671566    20     0     0     0     3   4.230 0.709E-55 0.142E-54 0.398E-09
       150.684459      130.102977     1164.606379     1     0     0     0     5   1.560 0.709E+02 0.142E+03 0.000E+00
        67.039214       19.488600      235.468423    16     0     0     0     1   3.930 0.709E-43 0.142E-42 0.175E-08
        14.620965       42.030617       75.171912    17     0     0     0     5   4.010 0.709E-46 0.142E-45 0.116E-08
        39.807883      131.272971       69.574621     8     0     0     0     2   3.120 0.709E-19 0.142E-18 0.128E-03
       185.605705      126.558311      875.055867     1     0     0     0     6   1.560 0.709E+02 0.142E+03 0.000E+00
       196.671455       69.567104     1264.138701     1     0     0     0     3   1.560 0.709E+02 0.142E+03 0.000E+00
        77.048260      155.468386      578.055124    14     0     0     0     8   3.760 0.709E-37 0.142E-36 0.453E-08
        66.984844       24.191391     1219.416321     1     0     0     0     3   1.560 0.709E+02 0.142E+03 0.000E+00
       124.106070      177.467263      339.654389     7     0     0     0     2   2.980 0.709E-16 0.142E-15 0.189E-02
        68.801633      170.005675     1920.842390     1     0     0     0     4   1.560 0.709E+02 0.142E+03 0.000E+00
         9.968392      150.849465      389.379456    15     0     0     0     8   3.840 0.709E-40 0.142E-39 0.275E-08
       152.946265       51.222436     1560.810935     1     0     0     0     3   1.560 0.709E+02 0.142E+03 0.000E+00
       182.670394       36.893373     1334.684181     1     0     0     0     1   1.560 0.709E+02 0.142E+03 0.000E+00
        81.740453       40.801116      619.303770    11     0     0     0     7   3.470 0.709E-28 0.142E-27 0.290E-07
       118.353970      104.629980      852.660545    30     0     0     0     2   4.840 0.709E-85 0.142E-84 0.366E-10
       122.726659       38.649775      783.797179    24     0     0     0     8   4.500 0.709E-67 0.142E-66 0.130E-09
       163.899657       47.470992      252.619155     8     0     0     0     4   3.120 0.709E-19 0.142E-18 0.128E-03
       144.542180      111.774671     1028.448671     1     0     0     0     1   1.560 0.709E+02 0.142E+03 0.000E+00
       194.970010      180.427665      386.196369    15     0     0     0     5   3.840 0.709E-40 0.142E-39 0.275E-08
       136.902089      159.187979      820.188198    20     0     0     0     3   4.230 0.709E-55 0.142E-54 0.398E-09
       180.470619       88.181424     1136.834841     1     0     0     0     6   1.560 0.709E+02 0.142E+03 0.000E+00
       116.469202       70.550058      668.714295    10     0     0     0     8   3.360 0.709E-25 0.142E-24 0.633E-07
        87.302005      152.429467       92.463803    11     0     0     0     8   3.470 0.709E-28 0.142E-27 0.290E-07
        58.487605      198.702774      218.865639    11     0     0     0     5   3.470 0.709E-28 0.142E-27 0.290E-07
        76.931506      118.525874      682.106061    20     0     0     0     6   4.230 0.709E-55 0.142E-54 0.398E-09
         2.396989       12.250797      790.347667    15     0     0     0     7   3.840 0.709E-40 0.142E-39 0.275E-08
        66.898605      160.827156     1429.067136     1     0     0     0     3   1.560 0.709E+02 0.142E+03 0.000E+00
       110.031323       93.182301      958.171599     1     0     0     0     7   1.560 0.709E+02 0.142E+03 0.000E+00
       146.496027       50.757826       95.220335     8     0     0     0     1   3.120 0.709E-19 0.142E-18 0.128E-03
        37.395648       99.975636      587.599734    12     0     0     0     3   3.570 0.709E-31 0.142E-30 0.146E-07
        33.223539      187.506585      929.228095    20     0     0     0     7   4.230 0.709E-55 0.142E-54 0.398E-09
       164.514540        0.054582      184.467838    18     0     0     0     6   4.080 0.709E-49 0.142E-48 0.788E-09
        25.986006      185.850697     1337.488394     1     0     0     0     2   1.560 0.709E+02 0.142E+03 0.000E+00
        56.129533      122.381657      155.283408     9     0     0     0     3   3.240 0.709E-22 0.142E-21 0.157E-06
       118.167413      169.709737      691.073765    24     0     0     0     2   4.500 0.709E-67 0.142E-66 0.130E-09
        64.556375       46.922439      388.368970    11     0     0     0     2   3.470 0.709E-28 0.142E-27 0.290E-07
       151.969253       39.126772      917.489062    24     0     0     0     2   4.500 0.709E-67 0.142E-66 0.130E-09
       195.731233       36.403965      129.665418     8     0     0     0     5   3.120 0.709E-19 0.142E-18 0.128E-03
        66.581329      110.348930      239.755886     8     0     0     0     8   3.120 0.709E-19 0.142E-18 0.128E-03
        66.827837       28.011855     1311.238898     1     0     0     0     1   1.560 0.709E+02 0.142E+03 0.000E+00
        55.691081      148.125076     1085.930288     1     0     0     0     1   1.560 0.709E+02 0.142E+03 0.000E+00