ITEM: TIMESTEP
0
ITEM: NUMBER OF ATOMS
        1168
ITEM: BOX BOUNDS pp pp pp
  0.0000000E+00   200.000000000000     
  0.0000000E+00   200.000000000000     
  0.0000000E+00   5000.00000000000     
ITEM: ATOMS x y z f1 f2 f3 f4 orient radius rate_mig rate_rot rate_emit
       154.719971       93.712585       72.348555     6     0     0     0     2   2.830 0.709E-13 0.142E-12 0.925E-04
        43.708823      175.198274      483.799527    20     0     0     0     1   4.230 0.709E-55 0.142E-54 0.398E-09
        78.737697        2.965351      685.406944    17     0     0     0     1   4.010 0.709E-46 0.142E-45 0.116E-08
         1.777511       15.088662     1023.293984     1     0     0     0     8   1.560 0.709E+02 0.142E+03 0.000E+00
       166.606091      149.050056      988.245389     1     0     0     0     7   1.560 0.709E+02 0.142E+03 0.000E+00
       124.106070      177.467263      339.654389     7     0     0     0     1   2.980 0.709E-16 0.142E-15 0.189E-02
        18.190717      148.746673      336.968478     9     1     0     0     7   3.241 0.000E+00 0.000E+00 0.410E+02
       193.527447      143.492975      902.309655     1     0     0     0     1   1.560 0.709E+02 0.142E+03 0.000E+00
        63.453025      190.675142      304.142221    10     0     0     0     1   3.360 0.709E-25 0.142E-24 0.633E-07
       138.138274       80.925832      906.901250     1     0     0     0     6   1.560 0.709E+02 0.142E+03 0.000E+00
        99.103451      137.366319     1192.972787     1     0     0     0     3   1.560 0.709E+02 0.142E+03 0.000E+00
        74.184246      141.747902      566.705701     1     0     0     0     6   1.560 0.709E+02 0.142E+03 0.000E+00
        63.514784        9.564383      426.956287     9     0     0     0     4   3.240 0.709E-22 0.142E-21 0.157E-06
       131.927626       91.926214      845.792850     1     0     0     0     5   1.560 0.709E+02 0.142E+03 0.000E+00
       165.221161       84.495012      316.563376    12     0     0     0     4   3.570 0.709E-31 0.142E-30 0.146E-07
       185.269788      163.956093      796.873912     1     0     0     0     6   1.560 0.709E+02 0.142E+03 0.000E+00
        55.023701       49.380929      811.779111     1     0     0     0     7   1.560 0.709E+02 0.142E+03 0.000E+00
       163.633135      193.772319      700.188508    21     0     0     0     4   4.300 0.709E-58 0.142E-57 0.292E-09
        34.074257      128.325778      806.277180    19     0     0     0     8   4.160 0.709E-52 0.142E-51 0.553E-09
       142.584264      129.854944      590.912316    20     0     0     0     7   4.230 0.709E-55 0.142E-54 0.398E-09
       197.473397      165.572987      220.150275    13     1     0     0     2   3.664 0.000E+00 0.000E+00 0.403E+01
       193.007244       95.525292     1108.654824     1     0     0     0     3   1.560 0.709E+02 0.142E+03 0.000E+00
       141.930685       63.434086      565.685622    12     0     0     0     1   3.570 0.709E-31 0.142E-30 0.146E-07
       159.625531       76.345730     1041.525556     1     0     0     0     5   1.560 0.709E+02 0.142E+03 0.000E+00
        71.800875      144.960565     1229.254596     1     0     0     0     1   1.560 0.709E+02 0.142E+03 0.000E+00
        34.057199      138.767114      699.804285     1     0     0     0     3   1.560 0.709E+02 0.142E+03 0.000E+00
        46.635647       25.905208      460.911225     9     0     0     0     4   3.240 0.709E-22 0.142E-21 0.157E-06
        18.460421       50.605133      865.080712     1     0     0     0     6   1.560 0.709E+02 0.142E+03 0.000E+00
        50.524279       94.880535      590.998228    24     0     0     0     3   4.500 0.709E-67 0.142E-66 0.130E-09
       117.397689      141.342025      942.891483     1     0     0     0     6   1.560 0.709E+02 0.142E+03 0.000E+00
         5.221912       79.101028      793.279305     1     0     0     0     1   1.560 0.709E+02 0.142E+03 0.000E+00
        57.753206       39.144260      485.009048     1     0     0     0     8   1.560 0.709E+02 0.142E+03 0.000E+00
        86.285633      164.519133      163.374767    14     0     0     0     4   3.760 0.709E-37 0.142E-36 0.453E-08
        83.266304       52.635031      941.850255     1     0     0     0     3   1.560 0.709E+02 0.142E+03 0.000E+00
        78.546622       86.257518     1294.336501     1     0     0     0     8   1.560 0.709E+02 0.142E+03 0.000E+00
        20.267682      125.210973     1134.980793     1     0     0     0     8   1.560 0.709E+02 0.142E+03 0.000E+00
       124.121270       61.993981      212.204042    14     0     0     0     2   3.760 0.709E-37 0.142E-36 0.453E-08
       116.270923       56.541079      992.001474     1     0     0     0     5   1.560 0.709E+02 0.142E+03 0.000E+00
        84.049164      124.527009      853.232393     1     0     0     0     5   1.560 0.709E+02 0.142E+03 0.000E+00
        58.487605      198.702774      218.865639    11     0     0     0     7   3.470 0.709E-28 0.142E-27 0.290E-07
        29.094753      135.561647      133.338506     7     0     0     0     1   2.980 0.709E-16 0.142E-15 0.189E-02
         2.836427      109.109468      647.670672     1     0     0     0     3   1.560 0.709E+02 0.142E+03 0.000E+00
       193.284088       20.855158      297.666718     1     0     0     0     6   1.560 0.709E+02 0.142E+03 0.000E+00
       104.231474      128.312817       47.057942    11     0     0     0     3   3.470 0.709E-28 0.142E-27 0.290E-07
       101.630774      133.600193      274.102567    11     0     0     0     7   3.470 0.709E-28 0.142E-27 0.290E-07
       161.923590      148.614196      945.393827     1     0     0     0     5   1.560 0.709E+02 0.142E+03 0.000E+00
        93.155266      182.190532     1025.788943     1     0     0     0     1   1.560 0.709E+02 0.142E+03 0.000E+00
       150.049307      197.782147      987.077304     1     0     0     0     6   1.560 0.709E+02 0.142E+03 0.000E+00
        48.649950       65.977423      617.328762     1     0     0     0     4   1.560 0.709E+02 0.142E+03 0.000E+00
        36.193852      184.196687      777.308904     1     0     0     0     5   1.560 0.709E+02 0.142E+03 0.000E+00
       182.280911      169.713798      305.153337    14     0     0     0     7   3.760 0.709E-37 0.142E-36 0.453E-08
       126.316917       60.345188     1139.979027     1     0     0     0     7   1.560 0.709E+02 0.142E+03 0.000E+00
        55.267030       47.294416      627.085462     1     0     0     0     3   1.560 0.709E+02 0.142E+03 0.000E+00
        63.268693       22.775666     1137.474120     1     0     0     0     8   1.560 0.709E+02 0.142E+03 0.000E+00
        20.603426       68.295097      466.857276     9     0     0     0     5   3.240 0.709E-22 0.142E-21 0.157E-06
       191.645150      195.307816      230.540179    16     0     0     0     4   3.930 0.709E-43 0.142E-42 0.175E-08
        31.323818       80.104179      563.010586     1     0     0     0     6   1.560 0.709E+02 0.142E+03 0.000E+00
        39.049725       34.653216      130.160535    17     0     0     0     2   4.010 0.709E-46 0.142E-45 0.116E-08
       173.483580       65.916955     1013.977805     1     0     0     0     2   1.560 0.709E+02 0.142E+03 0.000E+00
        13.732802      117.550951      355.985927     7     0     0     0     1   2.980 0.709E-16 0.142E-15 0.189E-02
        61.414099      155.855397      212.073462     1     0     0     0     4   1.560 0.709E+02 0.142E+03 0.000E+00
        45.882487       83.019232      738.765173     1     0     0     0     5   1.560 0.709E+02 0.142E+03 0.000E+00
       144.527185       76.530062      938.525558     1     0     0     0     7   1.560 0.709E+02 0.142E+03 0.000E+00
       133.785965      142.253262     1225.573020     1     0     0     0     5   1.560 0.709E+02 0.142E+03 0.000E+00
        47.250904       29.617183      836.439182     1     0     0     0     5   1.560 0.709E+02 0.142E+03 0.000E+00
         2.047037       20.798905      727.784438     1     0     0     0     7   1.560 0.709E+02 0.142E+03 0.000E+00
       124.859664       75.052773     1108.549871     1     0     0     0     8   1.560 0.709E+02 0.142E+03 0.000E+00
       148.646724       11.381769      118.995798    10     0     0     0     1   3.360 0.709E-25 0.142E-24 0.633E-07
        64.383065      148.302016     1009.275683     1     0     0     0     7   1.560 0.709E+02 0.142E+03 0.000E+00
        67.039214       19.488600      235.468423    16     0     0     0     2   3.930 0.709E-43 0.142E-42 0.175E-08
        23.787908      169.522726     1090.995334     1     0     0     0     2   1.560 0.709E+02 0.142E+03 0.000E+00
        94.718097        2.514648       19.477541     5     0     0     0     4   2.660 0.709E-10 0.142E-09 0.347E-02
        50.584740      197.707479      794.792878     1     0     0     0     5   1.560 0.709E+02 0.142E+03 0.000E+00
        25.692062       96.984511      801.420995     1     0     0     0     4   1.560 0.709E+02 0.142E+03 0.000E+00
        94.867854       38.770102       46.299938    14     0     0     0     2   3.760 0.709E-37 0.142E-36 0.453E-08
        32.005947      118.514479      683.015300    12     0     0     0     3   3.570 0.709E-31 0.142E-30 0.146E-07
         5.545140       14.653202       22.317900    10     0     0     0     4   3.360 0.709E-25 0.142E-24 0.633E-07
       104.461849      185.208925      291.812963     4     0     0     0     5   2.470 0.709E-07 0.142E-06 0.983E-02
        71.826243       65.143253      431.006970    17     0     0     0     6   4.010 0.709E-46 0.142E-45 0.116E-08
        95.079828       71.466396      408.170692     1     0     0     0     1   1.560 0.709E+02 0.142E+03 0.000E+00
       108.124221      183.997257      895.404268     1     0     0     0     8   1.560 0.709E+02 0.142E+03 0.000E+00
        86.890353      179.454073      466.797704     1     0     0     0     2   1.560 0.709E+02 0.142E+03 0.000E+00
        20.309351       20.059765     1120.577363     1     0     0     0     3   1.560 0.709E+02 0.142E+03 0.000E+00
       118.971310       49.108488      360.588579    12     0     0     0     2   3.570 0.709E-31 0.142E-30 0.146E-07
        20.533618       83.983208       73.034931    10     0     0     0     6   3.360 0.709E-25 0.142E-24 0.633E-07
        35.179360      137.620578      648.739864     1     0     0     0     2   1.560 0.709E+02 0.142E+03 0.000E+00
       156.156103      158.149974      228.244611    11     0     0     0     8   3.470 0.709E-28 0.142E-27 0.290E-07
       138.158750      126.617193      307.372697    16     0     0     0     8   3.930 0.709E-43 0.142E-42 0.175E-08
        81.123726      182.081559      962.454416     1     0     0     0     2   1.560 0.709E+02 0.142E+03 0.000E+00
        33.828947      141.612290      483.449722     1     0     0     0     4   1.560 0.709E+02 0.142E+03 0.000E+00
        34.944209       21.189643      677.159118     1     0     0     0     7   1.560 0.709E+02 0.142E+03 0.000E+00
        37.153712        0.183291      914.014067     1     0     0     0     1   1.560 0.709E+02 0.142E+03 0.000E+00
       169.207613       49.765314      668.106181     1     0     0     0     5   1.560 0.709E+02 0.142E+03 0.000E+00
        38.507035      144.272504      943.511000     1     0     0     0     1   1.560 0.709E+02 0.142E+03 0.000E+00
       188.107156      156.280252      959.523999     8     0     0     0     7   3.120 0.709E-19 0.142E-18 0.128E-03
         3.589133        9.045017       94.841187    23     0     0     0     3   4.430 0.709E-64 0.142E-63 0.167E-09
       131.943852       92.349213      959.087612     1     0     0     0     2   1.560 0.709E+02 0.142E+03 0.000E+00
       120.868395      185.220817      795.698549     1     0     0     0     6   1.560 0.709E+02 0.142E+03 0.000E+00
        87.167441      168.430487       78.865369     8     0     0     0     5   3.120 0.709E-19 0.142E-18 0.128E-03
       130.914632       23.250298      819.773907     1     0     0     0     6   1.560 0.709E+02 0.142E+03 0.000E+00
       124.595806      102.698011      657.426006     1     0     0     0     1   1.560 0.709E+02 0.142E+03 0.000E+00
        37.375968      103.855465     1063.435791     1     0     0     0     1   1.560 0.709E+02 0.142E+03 0.000E+00
        92.926816      196.601870      964.846501     1     0     0     0     2   1.560 0.709E+02 0.142E+03 0.000E+00
        10.947521       48.499921     1028.514421     1     0     0     0     8   1.560 0.709E+02 0.142E+03 0.000E+00
       117.859243      175.046150      428.052603     1     0     0     0     1   1.560 0.709E+02 0.142E+03 0.000E+00
       100.985104      136.572834      884.235603     1     0     0     0     1   1.560 0.709E+02 0.142E+03 0.000E+00
       110.187626      140.423997      633.755752     1     0     0     0     4   1.560 0.709E+02 0.142E+03 0.000E+00
        49.917731       99.229247      829.064525     1     0     0     0     1   1.560 0.709E+02 0.142E+03 0.000E+00
        14.875204       23.443603      880.804133     1     0     0     0     7   1.560 0.709E+02 0.142E+03 0.000E+00
       106.196736      181.827251      464.893721    16     0     0     0     3   3.930 0.709E-43 0.142E-42 0.175E-08
        51.980715       73.809942      783.807326     1     0     0     0     4   1.560 0.709E+02 0.142E+03 0.000E+00
         2.470076        0.330357      180.536418     8     0     0     0     6   3.120 0.709E-19 0.142E-18 0.128E-03
       139.175715       47.048500      834.473445     1     0     0     0     4   1.560 0.709E+02 0.142E+03 0.000E+00
       198.220944      116.020676      265.806112    13     0     0     0     3   3.660 0.709E-34 0.142E-33 0.784E-08
        85.279327      110.862333      536.933150    13     1     0     0     1   3.664 0.000E+00 0.000E+00 0.403E+01
        59.112686      190.573661      983.256760     1     0     0     0     5   1.560 0.709E+02 0.142E+03 0.000E+00
        24.681551        7.566674     1175.898632     1     0     0     0     6   1.560 0.709E+02 0.142E+03 0.000E+00
       180.693367      103.187529      581.872672     1     0     0     0     8   1.560 0.709E+02 0.142E+03 0.000E+00
         7.364251      123.747038       29.506949     4     0     0     0     3   2.470 0.709E-07 0.142E-06 0.983E-02
        52.189601       96.775709      434.766350    15     0     0     0     7   3.840 0.709E-40 0.142E-39 0.275E-08
       106.783429      119.363281     1632.813772     1     0     0     0     4   1.560 0.709E+02 0.142E+03 0.000E+00
         2.477024      122.660945      656.698331     1     0     0     0     5   1.560 0.709E+02 0.142E+03 0.000E+00
       174.234415       65.119175      897.771635     1     0     0     0     4   1.560 0.709E+02 0.142E+03 0.000E+00
        95.949621      139.801412      887.287794     1     0     0     0     5   1.560 0.709E+02 0.142E+03 0.000E+00
       162.106260       26.007547      264.802995    12     0     0     0     3   3.570 0.709E-31 0.142E-30 0.146E-07
        80.639059      198.723588      980.864804     1     0     0     0     4   1.560 0.709E+02 0.142E+03 0.000E+00
        45.156094      163.081005     1095.443549     1     0     0     0     3   1.560 0.709E+02 0.142E+03 0.000E+00
        77.001747      128.196613      972.968660     1     0     0     0     5   1.560 0.709E+02 0.142E+03 0.000E+00
        59.383833      132.293759     1153.282430     1     0     0     0     1   1.560 0.709E+02 0.142E+03 0.000E+00
        16.402740       23.260671      837.963682     1     0     0     0     3   1.560 0.709E+02 0.142E+03 0.000E+00
        57.545022      174.681319      209.544180     1     0     0     0     4   1.560 0.709E+02 0.142E+03 0.000E+00
        12.959783      160.492750       94.339551     8     0     0     0     5   3.120 0.709E-19 0.142E-18 0.128E-03
       197.666948       80.736528      489.120152    16     0     0     0     5   3.930 0.709E-43 0.142E-42 0.175E-08
       169.677536        3.013460      993.320142     1     0     0     0     8   1.560 0.709E+02 0.142E+03 0.000E+00
       148.708543       31.623788     1014.015518     1     0     0     0     4   1.560 0.709E+02 0.142E+03 0.000E+00
         9.380267      179.464306      360.755873     6     0     0     0     6   2.830 0.709E-13 0.142E-12 0.925E-04
         1.606482      117.879465      759.566840    10     0     0     0     7   3.360 0.709E-25 0.142E-24 0.633E-07
       120.329702      124.474513     1336.106830     1     0     0     0     7   1.560 0.709E+02 0.142E+03 0.000E+00
        64.160461      115.310805     1393.533084     1     0     0     0     4   1.560 0.709E+02 0.142E+03 0.000E+00
        38.046697       95.819096     1225.491734     1     0     0     0     3   1.560 0.709E+02 0.142E+03 0.000E+00
        63.585400      127.145171      101.709727    11     0     0     0     7   3.470 0.709E-28 0.142E-27 0.290E-07
        91.926980      135.884020     1402.210651     1     0     0     0     5   1.560 0.709E+02 0.142E+03 0.000E+00
       120.221230       17.969161      631.074952     1     0     0     0     3   1.560 0.709E+02 0.142E+03 0.000E+00
        91.487959       27.302404      230.850269     8     0     0     0     4   3.120 0.709E-19 0.142E-18 0.128E-03
       117.813679      104.949007      852.379141    20     0     0     0     7   4.230 0.709E-55 0.142E-54 0.398E-09
       197.550463       66.198194      949.860564     1     0     0     0     6   1.560 0.709E+02 0.142E+03 0.000E+00
        24.031469       58.631028      387.606556     9     0     0     0     5   3.240 0.709E-22 0.142E-21 0.157E-06
       111.687545       25.235269     1035.640428     1     0     0     0     2   1.560 0.709E+02 0.142E+03 0.000E+00
       192.593857      145.034696      685.193337     1     0     0     0     7   1.560 0.709E+02 0.142E+03 0.000E+00
        98.397389      180.574908      491.148852    18     0     0     0     2   4.080 0.709E-49 0.142E-48 0.788E-09
       187.041906       26.124118     1033.702588     1     0     0     0     5   1.560 0.709E+02 0.142E+03 0.000E+00
       152.249901        9.040265      368.507409     1     0     0     0     5   1.560 0.709E+02 0.142E+03 0.000E+00
        90.743874       75.759932      535.535351    13     1     0     0     6   3.664 0.000E+00 0.000E+00 0.403E+01
       141.381319       30.005322      961.479044     1     0     0     0     6   1.560 0.709E+02 0.142E+03 0.000E+00
       173.919202      110.405202      116.268054    12     0     0     0     6   3.570 0.709E-31 0.142E-30 0.146E-07
       163.901253       96.456931      635.386045     1     0     0     0     5   1.560 0.709E+02 0.142E+03 0.000E+00
        81.863395       50.970102     1448.656914     1     0     0     0     4   1.560 0.709E+02 0.142E+03 0.000E+00
        12.650374       12.480850     1392.414604     1     0     0     0     2   1.560 0.709E+02 0.142E+03 0.000E+00
        17.214158      161.105156      239.248219    10     0     0     0     5   3.360 0.709E-25 0.142E-24 0.633E-07
       176.364614      145.606360     1398.529152     1     0     0     0     5   1.560 0.709E+02 0.142E+03 0.000E+00
       112.310470      190.374464      340.845641     8     0     0     0     3   3.120 0.709E-19 0.142E-18 0.128E-03
       152.286432      158.059983      919.166902     1     0     0     0     3   1.560 0.709E+02 0.142E+03 0.000E+00
       145.937555        1.583386      388.653396     6     1     0     0     4   2.832 0.000E+00 0.000E+00 0.411E+02
       140.305205       76.320505      869.523699     1     0     0     0     8   1.560 0.709E+02 0.142E+03 0.000E+00
       147.232439      155.953909      174.482297    10     0     0     0     8   3.360 0.709E-25 0.142E-24 0.633E-07
       140.507225      126.575252     1137.290047     1     0     0     0     1   1.560 0.709E+02 0.142E+03 0.000E+00
        30.445039      150.888981      496.329078     1     0     0     0     4   1.560 0.709E+02 0.142E+03 0.000E+00
        36.179395      143.818594     1048.822150     1     0     0     0     8   1.560 0.709E+02 0.142E+03 0.000E+00
        86.294753       39.179179      672.863961     1     0     0     0     5   1.560 0.709E+02 0.142E+03 0.000E+00
        77.890834       52.817904      656.654059     1     0     0     0     2   1.560 0.709E+02 0.142E+03 0.000E+00
        83.493221       81.381445     1086.420444     1     0     0     0     3   1.560 0.709E+02 0.142E+03 0.000E+00
       133.901392      104.550800      300.260916     9     0     0     0     2   3.240 0.709E-22 0.142E-21 0.157E-06
       118.940736       77.666184      163.815851    16     0     0     0     4   3.930 0.709E-43 0.142E-42 0.175E-08
        23.458249       47.147787      846.764412     1     0     0     0     8   1.560 0.709E+02 0.142E+03 0.000E+00
       139.162949      107.114868     1035.023284     1     0     0     0     7   1.560 0.709E+02 0.142E+03 0.000E+00
        19.800001       60.233735      539.188924     1     0     0     0     7   1.560 0.709E+02 0.142E+03 0.000E+00
       195.677387      107.737548      621.749750     1     0     0     0     1   1.560 0.709E+02 0.142E+03 0.000E+00
       120.806940        1.796828     1048.585020     1     0     0     0     6   1.560 0.709E+02 0.142E+03 0.000E+00
        71.134443      131.686006     1312.832676     1     0     0     0     7   1.560 0.709E+02 0.142E+03 0.000E+00
       117.551786       43.378235      769.866432     1     0     0     0     3   1.560 0.709E+02 0.142E+03 0.000E+00
       190.825301       11.187296      889.612878     1     0     0     0     7   1.560 0.709E+02 0.142E+03 0.000E+00
        62.379144      133.068731     1009.631557     1     0     0     0     8   1.560 0.709E+02 0.142E+03 0.000E+00
        93.120529      140.140743      625.370529    17     0     0     0     8   4.010 0.709E-46 0.142E-45 0.116E-08
       137.922678      190.709951     1037.120611     9     0     0     0     6   3.240 0.709E-22 0.142E-21 0.157E-06
       156.729133      176.474321      764.118519     1     0     0     0     2   1.560 0.709E+02 0.142E+03 0.000E+00
        20.202120      173.121355      910.442304     1     0     0     0     1   1.560 0.709E+02 0.142E+03 0.000E+00
       121.855206       62.671561     1033.287219     1     0     0     0     4   1.560 0.709E+02 0.142E+03 0.000E+00
       103.385704      185.476379     1252.958658     1     0     0     0     8   1.560 0.709E+02 0.142E+03 0.000E+00
       131.459001      109.344537     1054.906715     1     0     0     0     6   1.560 0.709E+02 0.142E+03 0.000E+00
        48.766238        4.225969     1086.515745     1     0     0     0     2   1.560 0.709E+02 0.142E+03 0.000E+00
       138.188906       91.246128      849.489088     1     0     0     0     7   1.560 0.709E+02 0.142E+03 0.000E+00
        49.559923      188.053223      684.678326     1     0     0     0     2   1.560 0.709E+02 0.142E+03 0.000E+00
       130.037088        4.227587     1125.822156     1     0     0     0     3   1.560 0.709E+02 0.142E+03 0.000E+00
        21.424962       36.408439      770.549383     1     0     0     0     7   1.560 0.709E+02 0.142E+03 0.000E+00
       172.551157      126.444389     1105.021777     1     0     0     0     3   1.560 0.709E+02 0.142E+03 0.000E+00
       155.588508       35.671961      584.407824     1     0     0     0     1   1.560 0.709E+02 0.142E+03 0.000E+00
        27.083587       16.609617      372.239203     9     0     0     0     5   3.240 0.709E-22 0.142E-21 0.157E-06
         3.423832       18.907189      654.488472     1     0     0     0     8   1.560 0.709E+02 0.142E+03 0.000E+00
        85.085278       27.665447      987.679143     1     0     0     0     1   1.560 0.709E+02 0.142E+03 0.000E+00
       112.332052      124.486857      289.435989    12     1     0     0     3   3.568 0.000E+00 0.000E+00 0.410E+02
        75.081549       25.179364      651.424408     1     0     0     0     4   1.560 0.709E+02 0.142E+03 0.000E+00
       128.553521       82.680629      699.746742     1     0     0     0     7   1.560 0.709E+02 0.142E+03 0.000E+00
        76.282674       62.791127     1145.164211     1     0     0     0     2   1.560 0.709E+02 0.142E+03 0.000E+00
        15.235819       55.534471     1464.217760     1     0     0     0     2   1.560 0.709E+02 0.142E+03 0.000E+00
        43.809677       20.116895      766.299490     1     0     0     0     7   1.560 0.709E+02 0.142E+03 0.000E+00
        53.623112       87.894472      695.918404    18     1     0     0     5   4.084 0.000E+00 0.000E+00 0.409E+02
       154.982131      189.888104       89.663860     8     0     0     0     4   3.120 0.709E-19 0.142E-18 0.128E-03
       103.320290       45.503738      122.270463     8     0     0     0     8   3.120 0.709E-19 0.142E-18 0.128E-03
        21.171424       26.532501      886.391490     1     0     0     0     3   1.560 0.709E+02 0.142E+03 0.000E+00
         8.942698      108.132672      307.317228     9     0     0     0     4   3.240 0.709E-22 0.142E-21 0.157E-06
        57.775413      156.150093      747.039210     1     0     0     0     8   1.560 0.709E+02 0.142E+03 0.000E+00
        75.984135       11.886509      789.456365     1     0     0     0     4   1.560 0.709E+02 0.142E+03 0.000E+00
        81.357648       40.785288      619.742236     8     0     0     0     5   3.120 0.709E-19 0.142E-18 0.128E-03
       170.266716       38.794431      945.376103     1     0     0     0     2   1.560 0.709E+02 0.142E+03 0.000E+00
       180.126967      166.413464     1135.327910     1     0     0     0     7   1.560 0.709E+02 0.142E+03 0.000E+00
        80.628712        6.568540      630.838978     1     0     0     0     1   1.560 0.709E+02 0.142E+03 0.000E+00
       134.790977       72.668068      514.629715    16     0     0     0     4   3.930 0.709E-43 0.142E-42 0.175E-08
        85.580395       83.231833      872.089498     1     0     0     0     8   1.560 0.709E+02 0.142E+03 0.000E+00
       124.433401       14.828729      936.762348     1     0     0     0     3   1.560 0.709E+02 0.142E+03 0.000E+00
       112.715457       41.069851     1149.323494     1     0     0     0     1   1.560 0.709E+02 0.142E+03 0.000E+00
       178.615410        8.213049      663.151753     1     0     0     0     3   1.560 0.709E+02 0.142E+03 0.000E+00
       103.582836       36.835436     1039.907648     1     0     0     0     1   1.560 0.709E+02 0.142E+03 0.000E+00
       173.015872      124.377630      340.900771    12     0     0     0     3   3.570 0.709E-31 0.142E-30 0.146E-07
        53.260560      129.409405      924.055816     1     0     0     0     8   1.560 0.709E+02 0.142E+03 0.000E+00
       145.817868       98.783020      463.233858     1     0     0     0     4   1.560 0.709E+02 0.142E+03 0.000E+00
       102.084729       93.216921     1159.510234     1     0     0     0     4   1.560 0.709E+02 0.142E+03 0.000E+00
        90.409988       14.959585      315.807017    10     0     0     0     7   3.360 0.709E-25 0.142E-24 0.633E-07
       134.161932       43.671333     1125.093864     1     0     0     0     2   1.560 0.709E+02 0.142E+03 0.000E+00
       105.347331      183.032129      616.884607     1     0     0     0     4   1.560 0.709E+02 0.142E+03 0.000E+00
        21.162308      156.042186     1040.760283     1     0     0     0     7   1.560 0.709E+02 0.142E+03 0.000E+00
       100.498573       41.635112      149.637204     9     0     0     0     8   3.240 0.709E-22 0.142E-21 0.157E-06
       151.513028        1.242271      918.202588     1     0     0     0     2   1.560 0.709E+02 0.142E+03 0.000E+00
        42.125322      110.328391     1078.191671     1     0     0     0     6   1.560 0.709E+02 0.142E+03 0.000E+00
        40.187974      152.461515      745.645385    13     1     0     0     7   3.664 0.000E+00 0.000E+00 0.403E+01
       146.918108      187.710863      659.257538    17     0     0     0     8   4.010 0.709E-46 0.142E-45 0.116E-08
       196.991117      139.511153      189.150492    12     1     0     0     2   3.568 0.000E+00 0.000E+00 0.410E+02
       153.993862      105.987717      465.100181    17     0     0     0     2   4.010 0.709E-46 0.142E-45 0.116E-08
        42.229931      136.188506      667.817110     1     0     0     0     4   1.560 0.709E+02 0.142E+03 0.000E+00
       187.481515       36.003708      986.390662     1     0     0     0     1   1.560 0.709E+02 0.142E+03 0.000E+00
       134.451286       91.804188      909.068416     1     0     0     0     3   1.560 0.709E+02 0.142E+03 0.000E+00
       174.794023      145.135793      574.364041     7     0     0     0     1   2.980 0.709E-16 0.142E-15 0.189E-02
        28.682362      100.261744       39.360714    18     0     0     0     8   4.080 0.709E-49 0.142E-48 0.788E-09
       150.886084        4.511298      433.174219     1     0     0     0     2   1.560 0.709E+02 0.142E+03 0.000E+00
       106.890042        6.067339      207.896024     1     0     0     0     6   1.560 0.709E+02 0.142E+03 0.000E+00
        24.099061        5.996748     1107.487935     1     0     0     0     5   1.560 0.709E+02 0.142E+03 0.000E+00
       144.177263      153.575856     1132.327156     1     0     0     0     2   1.560 0.709E+02 0.142E+03 0.000E+00
        32.120316       19.659770      897.828763     1     0     0     0     6   1.560 0.709E+02 0.142E+03 0.000E+00
       137.178688      183.603029     1127.196278     1     0     0     0     6   1.560 0.709E+02 0.142E+03 0.000E+00
       164.106975      122.747092      615.869307     1     0     0     0     4   1.560 0.709E+02 0.142E+03 0.000E+00
        56.129533      122.381657      155.283408     9     0     0     0     8   3.240 0.709E-22 0.142E-21 0.157E-06
       188.134533       74.787424      175.262033    17     0     0     0     3   4.010 0.709E-46 0.142E-45 0.116E-08