ITEM: TIMESTEP
0
ITEM: NUMBER OF ATOMS
        7865
ITEM: BOX BOUNDS pp pp pp
  0.0000000E+00   500.000000000000     
  0.0000000E+00   500.000000000000     
  0.0000000E+00   500.000000000000     
ITEM: ATOMS x y z nV nH f3 f4 orient
       132.438208       22.612219      234.782967     1     0     0     0     1
       240.331490      417.151486      240.493410     1     0     0     0     7
       417.470864      384.626136      137.423755     1     0     0     0     7
       220.377395       15.073851      261.044073     1     0     0     0     7
        73.723204       95.075532      203.672897     1     0     0     0     3
       405.658591      403.616818      278.168876     1     0     0     0     5
       353.260753      312.395516      183.451402     1     0     0     0     3
       297.969479       62.455533      462.615479     1     0     0     0     5
       492.673886      333.169631      476.598749     1     0     0     0     5
       101.961346       67.540127       27.092935     1     0     0     0     3
       280.488203      159.394717      263.748459     1     0     0     0     7
         1.084807      487.775027      202.144378     1     0     0     0     2
       199.727541        5.609582      287.356259     1     0     0     0     7
       128.014499      317.174218       64.288427     1     0     0     0     4
       192.628523      200.996548      453.263820     1     0     0     0     5
       346.610225      368.193287       80.832061     1     0     0     0     8
       299.953909        2.548653      380.142108     1     0     0     0     1
        90.196298      370.005045      495.497995     1     0     0     0     3
       288.655859      440.574720      124.630788     1     0     0     0     2
        58.001102       96.569204      436.741326     1     0     0     0     4
        94.007555      491.621523      136.809255     1     0     0     0     1
       226.822498      497.329709      498.493950     1     0     0     0     4
       490.870799      447.055697      176.723686     1     0     0     0     8
       410.125366      330.608032      463.934665     1     0     0     0     5
       327.955123      433.113372      349.380849     1     0     0     0     3
       283.430419       22.577628      427.461961     1     0     0     0     2
       425.669213      297.199956      311.042370     1     0     0     0     1
       173.051810      378.841531      302.065635     1     0     0     0     2
       114.857153      214.154402      391.036245     1     0     0     0     4
       166.826862      228.325446      394.115177     1     0     0     0     4
       289.064922      261.243855      269.501696     1     0     0     0     5
        53.868900      396.629591      391.983008     1     0     0     0     4
       256.367447       79.502878       33.246662     1     0     0     0     1
       480.100750      306.634481      449.302798     1     0     0     0     3
       205.356220      445.873892      111.700593     1     0     0     0     1
       173.655146        5.445005       19.619824     1     0     0     0     7
       319.641150      227.614960       53.134278     1     0     0     0     7
       177.495211        6.711974      197.687264     1     0     0     0     3
       412.150111      173.729570      210.238520     1     0     0     0     8
       343.586795      377.020811      467.496740     1     0     0     0     1
        88.908519      204.435385       14.457433     1     0     0     0     8
       292.630938      257.268959      297.095718     1     0     0     0     6
        43.179502      171.747174      385.800753     1     0     0     0     2
       268.364027       64.226480      170.594624     1     0     0     0     8
       307.300800      454.123316      460.165141     1     0     0     0     4
       435.008117      131.476695      408.645090     1     0     0     0     6
        54.327543      262.071160      423.149588     1     0     0     0     5
       100.344960       98.954311      429.077707     1     0     0     0     5
         5.517753      353.523517      335.352550     1     0     0     0     1
        93.648505       94.616333       41.318851     1     0     0     0     1
       245.008065      121.073451      274.226602     1     0     0     0     1
       447.302942      311.163012      134.834869     1     0     0     0     7
        69.998836       70.947797      452.626360     1     0     0     0     2
       497.621803      174.558185      204.225138     1     0     0     0     5
       439.313341      271.643209      151.325121     1     0     0     0     3
       280.309955      165.049313      329.386773     1     0     0     0     7
        81.712325      154.791345      451.139246     1     0     0     0     7
       113.322893       14.286155      487.824598     1     0     0     0     8
       186.465824      249.784512      233.321624     1     0     0     0     3
       451.566517      255.009385      220.513564     1     0     0     0     4
       357.531319       66.968833       89.944536     1     0     0     0     3
        76.239168        3.998434      349.035458     1     0     0     0     1
       353.375017      150.087613       98.050231     1     0     0     0     6
       426.912212      412.704779       80.564300     1     0     0     0     5
       262.423451      377.405467      425.100653     1     0     0     0     2
       462.708658      400.518161      418.731507     1     0     0     0     8
       278.748585        5.298516       64.881757     1     0     0     0     2
       376.577785      443.276212      443.612357     1     0     0     0     7
       125.325559      409.253600      367.930710     1     0     0     0     6
       257.459776      261.349963      321.591393     1     0     0     0     1
       363.856995      201.463312      404.980356     1     0     0     0     4
       358.691924      169.294228      400.885371     1     0     0     0     1
       304.558597      326.598158      361.586835     1     0     0     0     2
       351.419029      342.536668      326.356291     1     0     0     0     5
       466.419644       60.812926       89.867790     1     0     0     0     6
       328.742739      422.219909      499.707140     1     0     0     0     6
       425.989753      306.549112       43.263447     1     0     0     0     4
       367.702012      460.760949      238.468193     1     0     0     0     1
       378.332145      456.689763      302.060327     1     0     0     0     6
       276.089036      487.580280      393.792378     1     0     0     0     8
       103.439968       44.843093      104.268533     1     0     0     0     1
        57.820158      439.731507      205.787708     1     0     0     0     8
       474.979739      201.600244      438.340573     1     0     0     0     1
       191.296556      229.681462      388.810760     1     0     0     0     8
       124.512430      218.455117      174.346832     1     0     0     0     4
       472.454657       99.168117      159.781670     1     0     0     0     3
       391.787019      363.608835      490.344439     1     0     0     0     2
       385.194455      422.156611      157.951140     1     0     0     0     8
       467.116206      128.346275      176.073995     1     0     0     0     7
       489.553722      391.879620      400.652694     1     0     0     0     7
       186.089740      360.603390      391.115402     1     0     0     0     2
       122.005141      374.575383      221.867876     1     0     0     0     8
       210.658685      476.884015      153.703991     1     0     0     0     8
       390.382356      307.094545      300.271117     1     0     0     0     3
       268.708619      390.823795       49.776291     1     0     0     0     7
       349.339631      299.462075      389.065216     1     0     0     0     7
       301.054992      308.469539      374.871395     1     0     0     0     5
       423.986880        1.058456      490.628882     1     0     0     0     2
       101.350078       10.941562      105.377234     1     0     0     0     2
       199.900496      174.005758      433.065915     1     0     0     0     6
       218.920757      297.899827      152.521720     1     0     0     0     8
       359.538594      325.455044      298.901204     1     0     0     0     1
       497.728821      292.488097      349.180730     1     0     0     0     3
        69.781739      338.941968       13.162417     1     0     0     0     4
       332.465381      255.417576      329.630528     1     0     0     0     7
       106.223534      151.079557      174.180107     1     0     0     0     5
       439.721101      483.698214      282.153440     1     0     0     0     1
       287.397474       53.557155      309.301267     1     0     0     0     3
         7.124058      478.561178      378.268744     1     0     0     0     1
       429.036471       52.907264      193.632861     1     0     0     0     7
       172.823943      454.596740      479.658299     1     0     0     0     5
       239.043425      431.872094       61.333863     1     0     0     0     1
       412.926685      470.420850      205.379463     1     0     0     0     1
        45.200802      492.865150       24.633808     1     0     0     0     8
       441.498075      150.089848      106.571923     1     0     0     0     8
        96.694232      153.867561      279.781118     1     0     0     0     2
       193.066560       30.517414      184.543538     1     0     0     0     1
       407.053877      368.615756       60.487305     1     0     0     0     4
       395.543240      217.239831       54.420657     1     0     0     0     8
       205.293133      486.568050       59.529726     1     0     0     0     6
       294.634315      131.975259      263.883719     1     0     0     0     6
       101.947788       67.341427      351.796158     1     0     0     0     2
       208.294482      194.787631      449.598478     1     0     0     0     1
       431.423912      167.984357       69.672567     1     0     0     0     4
        76.494259      244.472651      219.019362     1     0     0     0     4
        96.958895      341.131892      330.781638     1     0     0     0     7
        91.055065       49.819071      448.811238     1     0     0     0     6
       481.501773      121.517257       94.359402     1     0     0     0     7
       164.121319      444.104469      348.286761     1     0     0     0     6
        45.521915       86.834539      167.209799     1     0     0     0     3
       409.409323      319.409235      133.369265     1     0     0     0     2
       159.163879      481.153060      380.815615     1     0     0     0     7
       407.137910      205.001508      423.884069     1     0     0     0     1
       478.686466      474.432929      482.690812     1     0     0     0     4
        44.158580      265.675038      365.644417     1     0     0     0     6
       380.260513      118.892636      141.621164     1     0     0     0     8
       267.100272      281.605187      387.759519     1     0     0     0     4
       345.876334      386.461285      114.114472     1     0     0     0     3
         6.499679      338.940473      233.375690     1     0     0     0     3
       332.219619      347.394381      468.910437     1     0     0     0     3
       334.981503      252.988911       20.130673     1     0     0     0     7
       456.624441      193.045549      363.343270     1     0     0     0     1
       245.081003      484.196332      201.918441     1     0     0     0     5
       165.440384      230.497641      451.052111     1     0     0     0     1
       394.556122      223.399728      312.630375     1     0     0     0     8
       477.651915      469.131310      365.613962     1     0     0     0     4
       102.906822      101.133788      397.535839     1     0     0     0     2
       347.207532      407.509294      480.417417     1     0     0     0     1
        17.041267       88.607647       45.133445     1     0     0     0     3
       348.437220      307.667621       74.848863     1     0     0     0     7
       270.125064      304.227043      172.700461     1     0     0     0     3
       469.450720      499.068368      143.411880     1     0     0     0     8
       452.569994      400.012263      178.990471     1     0     0     0     8
       375.465255       74.193248      275.182645     1     0     0     0     3
       497.972397       74.104549       67.697663     1     0     0     0     2
       462.399821      435.447852      200.654988     1     0     0     0     4
       373.631467      465.095244      428.520184     1     0     0     0     7
       121.577516      157.076752      113.346618     1     0     0     0     5
       270.212984        6.979235       92.757630     1     0     0     0     8
       298.797039      387.745225       52.221754     1     0     0     0     7
       188.318638      300.491147      415.678400     1     0     0     0     6
       252.049033      285.084969      293.005309     1     0     0     0     6
       440.287105      382.021126       14.117643     1     0     0     0     4
       352.998046      398.426743      215.992327     1     0     0     0     6
       141.778749      362.050991      350.436578     1     0     0     0     4
       215.063807      420.386441        7.049161     1     0     0     0     7
        39.104640      399.575258      336.635040     1     0     0     0     4
       276.701407      473.647277      269.968446     1     0     0     0     7
       259.523837      284.358681      394.147652     1     0     0     0     2
       273.442530      314.157735      327.663475     1     0     0     0     4
       333.657257      454.436515      258.307068     1     0     0     0     5
       279.820095      102.608495      423.609002     1     0     0     0     6
       262.620592      168.692503      153.742636     1     0     0     0     8
         3.933331       22.425210      229.708280     1     0     0     0     5
       372.500982      448.442949       68.248270     1     0     0     0     5
       418.882436      240.326583      339.542227     1     0     0     0     2
        79.765268       83.903208      303.616894     1     0     0     0     7
       498.589972      488.712357      380.713773     1     0     0     0     4
       408.118859      196.857822      345.384348     1     0     0     0     2
        28.447841      488.844916      371.210883     1     0     0     0     8
       322.330035      404.078343      290.177853     1     0     0     0     1
       173.904943      470.595618      224.821946     1     0     0     0     1
        72.846223      399.008305      151.594722     1     0     0     0     4
        74.207170      455.792995      173.513011     1     0     0     0     2
       428.064965      421.553312      380.279798     1     0     0     0     7
       413.532554      299.807600       17.757952     1     0     0     0     1
       149.867245      433.626701      474.717656     1     0     0     0     2
        92.557652      311.414707      224.969621     1     0     0     0     5
       194.025620      490.591987      363.812869     1     0     0     0     7
       214.513689      481.035478      212.674062     1     0     0     0     1
        25.933200      398.789942       60.813680     1     0     0     0     8
       266.624537       75.829675      259.414334     1     0     0     0     3
       264.454820       18.375427      211.984510     1     0     0     0     8
        51.641906      476.445395      273.968454     1     0     0     0     6
        19.568366      268.072830       60.867670     1     0     0     0     7
       331.537889      210.316088      199.425057     1     0     0     0     4
        92.875882      481.925912      212.301986     1     0     0     0     4
       112.948271      126.684704      251.863919     1     0     0     0     6
       268.642248       34.425997      156.785712     1     0     0     0     1
       167.306469       60.289248      232.521671     1     0     0     0     7
       204.771848      316.613731      138.135113     1     0     0     0     6
       326.773662       48.954881      443.980578     1     0     0     0     7
        70.816236       72.872704      126.227337     1     0     0     0     2
       174.550180      474.867113      303.808141     1     0     0     0     7
       195.688248      336.721636       10.684418     1     0     0     0     1
        70.846381      383.160542      458.354527     1     0     0     0     6
       491.132899       70.792964      285.899192     1     0     0     0     7
       297.633860      169.852617      343.948338     1     0     0     0     8
       462.851048      330.438797      241.602277     1     0     0     0     2
       135.359567      119.463218      438.605158     1     0     0     0     4
       443.276560      289.924424      107.526338     1     0     0     0     7
       199.740525      436.770183      303.839984     1     0     0     0     5
         9.693913      323.243414      485.032574     1     0     0     0     4
       450.414689      448.174039       22.146085     1     0     0     0     2
       295.248674      363.215523      402.411681     1     0     0     0     5
       188.309945       47.263084      410.287561     1     0     0     0     6
         2.516033      138.085421      133.912052     1     0     0     0     8
        52.870865      212.136545      171.592167     1     0     0     0     4
       387.469716      108.672964      305.823887     1     0     0     0     1
       366.680053        5.226722      148.652531     1     0     0     0     5
       374.830129      285.030036      355.202873     1     0     0     0     5
       438.649988      389.862743      456.654847     1     0     0     0     5
       186.693255      111.957307      204.654805     1     0     0     0     5
       206.504200      472.906085       37.930560     1     0     0     0     5
       249.361597      269.620815      250.467747     1     0     0     0     4
       248.083915       15.008873      213.037608     1     0     0     0     3
       363.214707      343.986526      413.167916     1     0     0     0     2
       233.792293      141.444914      255.938731     1     0     0     0     4
       473.705919      355.380974      226.684872     1     0     0     0     2
       123.607737      348.771363      296.210792     1     0     0     0     2
        84.742155      151.495031      491.503896     1     0     0     0     5
       422.910661       41.594986      268.035154     1     0     0     0     6
       494.778703        8.583675      394.287473     1     0     0     0     7
       474.223484      170.308261       10.126514     1     0     0     0     5
       414.713074      278.258720      392.722364     1     0     0     0     8
        13.710129      152.243193      229.302163     1     0     0     0     3
       141.887013      331.891278      443.503275     1     0     0     0     7
       445.371599      392.919934      348.013870     1     0     0     0     3
       437.583611      470.805769      396.072671     1     0     0     0     4
       126.262351      290.008776      408.249922     1     0     0     0     8
       289.072793       19.833872      487.173517     1     0     0     0     7
        58.955496      247.569172      212.306831     1     0     0     0     3
       312.868231      362.139405      457.782248     1     0     0     0     6
       209.914574      237.230181      293.759810     1     0     0     0     6
       138.212955      398.991621      271.463537     1     0     0     0     5
       256.857055      137.195295       78.874584     1     0     0     0     2
         4.155282        3.398225      294.306286     1     0     0     0     2
       439.944501      254.270392       58.309968     1     0     0     0     3
       307.116324        6.479216      428.906125     1     0     0     0     4
       465.940549      115.564796      250.374346     1     0     0     0     3
       477.960073      166.323409      322.658608     1     0     0     0     8
       113.016260      217.608120      395.955114     1     0     0     0     1
       378.708017      258.206776      340.138656     1     0     0     0     2
       274.638584      237.438885      263.962259     1     0     0     0     6
       133.994690      216.070971      203.231994     1     0     0     0     5
       127.654188      142.618578       56.081985     1     0     0     0     4
       336.323419        1.835361      436.966065     1     0     0     0     2
        83.881993      131.727278        2.281533     1     0     0     0     4
        51.540929      113.012763      300.001698     1     0     0     0     6
       308.664006      134.731451      432.916340     1     0     0     0     1
       310.966859      248.009065      435.811100     1     0     0     0     8
       157.356254      185.041103      451.971750     1     0     0     0     3
       117.777616      327.485859       14.909121     1     0     0     0     4
       236.674339      401.057291      361.933943     1     0     0     0     4
       193.284221      174.424637      453.939103     1     0     0     0     3
       253.516803      258.471209       44.378126     1     0     0     0     3
       444.858765      124.073708      336.863263     1     0     0     0     4
       394.204871      315.148987      388.772533     1     0     0     0     3
       337.798756      238.917806      224.530444     1     0     0     0     4
       418.371600       22.120798      273.588420     1     0     0     0     1
        40.080178      424.738450       50.117651     1     0     0     0     5
       331.966025       91.787926      135.531424     1     0     0     0     8
       477.721008       57.803265        0.425051     1     0     0     0     3
       140.633163      176.376026      297.484738     1     0     0     0     8
       161.694872      455.783329      377.353270     1     0     0     0     2
       459.295358       36.405473      161.953943     1     0     0     0     1
       437.382165       14.584729       77.705931     1     0     0     0     3
       199.495489      223.797819      236.227328     1     0     0     0     2
       106.231926      104.277041      259.357678     1     0     0     0     5
       311.298657      143.658684      121.330899     1     0     0     0     2
       338.876388      272.585933       12.059296     1     0     0     0     6
       220.450337       98.384266      359.795338     1     0     0     0     6
       406.696865      142.367855      211.043633     1     0     0     0     8
       123.594874       29.205129       81.905233     1     0     0     0     2
       393.527495      207.726161       47.100584     1     0     0     0     2
        68.159710      489.842742      477.895327     1     0     0     0     1
       426.845914      348.103982       60.220134     1     0     0     0     6
       220.439266      474.095530      113.397854     1     0     0     0     4
       228.164854       37.343040      370.546058     1     0     0     0     4
       240.450789      348.185121      115.616353     1     0     0     0     4
       320.230420      172.735081      102.415571     1     0     0     0     3
       215.388632      102.976460      490.363903     1     0     0     0     6
        98.969412      486.166978      363.881165     1     0     0     0     5
        56.888290       89.970540      238.131361     1     0     0     0     5
       452.197576      303.277309      187.676587     1     0     0     0     6
       463.827274       63.669069      309.953530     1     0     0     0     7
       480.297055      248.213072      180.960702     1     0     0     0     2
       451.131289      400.864229      319.381715     1     0     0     0     3
       220.329445      488.328015      169.638447     1     0     0     0     8
       101.796469      426.222828      379.143032     1     0     0     0     1
       267.359903      280.173656       36.203327     1     0     0     0     5
       361.927346      183.496662      475.254289     1     0     0     0     5
       318.864089      443.826628      383.746679     1     0     0     0     7
       343.187216      357.935230       79.103628     1     0     0     0     2
       162.226438      263.076797        6.853310     1     0     0     0     6
        72.874392      350.895483      408.107812     1     0     0     0     7
       316.664878      107.045137       33.243958     1     0     0     0     5
        84.533492      143.553394      498.161887     1     0     0     0     4
       339.772064      106.568309      467.259105     1     0     0     0     7
       389.257348      226.350221      338.900629     1     0     0     0     8
         1.559564      109.341656       19.390684     1     0     0     0     7
        24.958860      415.124822      356.519969     1     0     0     0     4
       491.471945      252.652000      438.016779     1     0     0     0     5
       412.147028      216.604245      275.600296     1     0     0     0     8
       488.517031      124.411237      495.940884     1     0     0     0     5
       292.886721      162.822330      222.572828     1     0     0     0     6
       213.215513      210.896304      109.261491     1     0     0     0     6
       496.410586      418.127715      358.403609     1     0     0     0     3
       211.757825      261.976204       44.333023     1     0     0     0     4
       457.762817      104.647374      488.849370     1     0     0     0     7
        97.723280      174.571122      162.877384     1     0     0     0     7
       255.448890      497.806623       90.859765     1     0     0     0     5
       472.939496      250.442531      376.986018     1     0     0     0     4
        21.489835      275.260739      404.374478     1     0     0     0     8
       275.381267      379.028119      397.173863     1     0     0     0     8
       426.724601      370.309148      176.080687     1     0     0     0     3
       255.082712      151.267153       28.757178     1     0     0     0     6
       416.579481        7.318453      346.863379     1     0     0     0     1
       258.546540        3.111137      434.971219     1     0     0     0     4
       148.468530       18.030259      481.634563     1     0     0     0     5
       389.536590       62.095215      176.039171     1     0     0     0     6
        66.023015        1.661801       42.023068     1     0     0     0     6
       105.816553      231.888056      437.590813     1     0     0     0     1
       411.175085      175.931268       27.329806     1     0     0     0     1
       260.114991      163.195912      435.006232     1     0     0     0     6
       356.175564      290.083732      368.184276     1     0     0     0     6
       107.993502      265.259220      185.144619     1     0     0     0     5
       425.246265      191.734344       62.661020     1     0     0     0     2
        40.223243      252.621592      353.547722     1     0     0     0     1
       280.764257      293.863200       13.228143     1     0     0     0     1
       346.234300       78.430511       97.626813     1     0     0     0     6
        78.621092      402.471304      392.822363     1     0     0     0     6
       376.593107      180.745046       61.843160     1     0     0     0     6
       438.842207      116.138985      172.052875     1     0     0     0     6
       444.245337      466.079794       80.956152     1     0     0     0     7
       292.224107      490.404157      158.083006     1     0     0     0     8
       236.194658      252.171085      398.257359     1     0     0     0     1
       370.684206      319.440029       95.468375     1     0     0     0     2
       459.371763      341.224023      179.646356     1     0     0     0     4
       264.959667      447.339082      310.820166     1     0     0     0     5
       267.260056       90.687517      278.855262     1     0     0     0     2
        92.262217       89.897079      208.523244     1     0     0     0     4
       413.171842      388.636167      108.671008     1     0     0     0     7
       309.602899      187.815778      216.300888     1     0     0     0     5
        90.165964      320.680416      129.967752     1     0     0     0     1
       422.137984      289.028015      155.563576     1     0     0     0     4
       207.497716      150.972152       44.995597     1     0     0     0     6
        55.728379        6.403799      143.476803     1     0     0     0     6
       128.725034      405.076433      257.505950     1     0     0     0     7
       293.026899      226.707295      120.155325     1     0     0     0     4
       169.879292      129.447991      103.338621     1     0     0     0     5
       206.364233       71.078088      395.750885     1     0     0     0     5
         9.297572      464.137863      412.038671     1     0     0     0     8
        12.949101      122.489294      137.698289     1     0     0     0     3
       464.733945      293.933620      255.453474     1     0     0     0     2
       370.333180      377.396934      392.074071     1     0     0     0     3
       115.706865      180.766707       92.877443     1     0     0     0     4
       248.409714      375.028052      424.134980     1     0     0     0     7
        48.408035      162.557772      426.267048     1     0     0     0     5
       366.630830      101.951517      264.971037     1     0     0     0     7
       373.806736      263.428502       28.391591     1     0     0     0     2
       401.993584      431.707883      309.365335     1     0     0     0     8