ITEM: TIMESTEP
0
ITEM: NUMBER OF ATOMS
        7881
ITEM: BOX BOUNDS pp pp pp
  0.0000000E+00   500.000000000000     
  0.0000000E+00   500.000000000000     
  0.0000000E+00   500.000000000000     
ITEM: ATOMS x y z f1 f2 f3 f4 orient radius
        80.709956      168.344381       61.522637     1     0     0     0     6   1.560
       440.460423      376.293351      343.066986     1     0     0     0     1   1.560
       431.018083      463.054155      356.163329     1     0     0     0     5   1.560
         8.109596      331.351746      304.755980     1     0     0     0     1   1.560
       460.964866      182.947114      297.155049     1     0     0     0     5   1.560
       301.774034       66.945698      219.970155     1     0     0     0     7   1.560
       454.094320       66.759780      315.102627     1     0     0     0     7   1.560
       415.787731      441.998675        1.882802     1     0     0     0     3   1.560
       110.393588      269.305219        6.008236     1     0     0     0     1   1.560
       371.984411      270.449652      248.803671     1     0     0     0     8   1.560
       381.546783      417.415766      218.019253     1     0     0     0     8   1.560
        29.146777      359.464587      488.177001     1     0     0     0     5   1.560
       448.039379      455.530655      429.163552     1     0     0     0     4   1.560
       270.808570       79.124386      238.299504     1     0     0     0     8   1.560
        48.156290      289.068591       68.016602     1     0     0     0     3   1.560
       293.952688      329.492407        3.832293     1     0     0     0     4   1.560
       395.563646      230.552482      225.363566     1     0     0     0     7   1.560
        93.173085      483.129261       47.906138     1     0     0     0     6   1.560
       114.466056      236.545140      261.437892     1     0     0     0     6   1.560
        52.352394       69.168824       37.911224     1     0     0     0     2   1.560
       371.770266      388.762082      319.143544     1     0     0     0     4   1.560
        67.155910       98.445620       50.559866     1     0     0     0     3   1.560
        14.513191      473.734589      205.888627     1     0     0     0     6   1.560
        24.967263      114.271772      484.825737     1     0     0     0     5   1.560
       194.769716      152.244456      160.566105     1     0     0     0     2   1.560
       378.441182      283.260410      388.319503     1     0     0     0     6   1.560
       282.267820      233.858196      253.847509     1     0     0     0     6   1.560
       151.591756      176.263621      349.564682     1     0     0     0     8   1.560
       287.944670      138.055579      372.705820     1     0     0     0     6   1.560
        43.486794      398.820072       66.072212     1     0     0     0     5   1.560
       473.632183       35.611247      306.315063     1     0     0     0     8   1.560
       417.076719      294.331561       38.600383     1     0     0     0     4   1.560
       437.366148       61.555961      405.305427     1     0     0     0     5   1.560
       363.883367      484.284672      444.052249     1     0     0     0     4   1.560
        44.105757      493.430554      370.717034     1     0     0     0     7   1.560
       304.955736      367.228348      418.344643     1     0     0     0     7   1.560
       194.833004      154.471416      287.354964     1     0     0     0     1   1.560
       122.447766       11.530032      311.030564     1     0     0     0     5   1.560
       271.106455      452.895629      260.941048     1     0     0     0     2   1.560
       180.074968      114.772226      352.601783     1     0     0     0     6   1.560
       359.484890       47.330443      117.282365     1     0     0     0     2   1.560
       191.990767      241.475882      352.898977     1     0     0     0     5   1.560
       437.339584      416.812255      243.541900     1     0     0     0     2   1.560
       129.134062      416.412831       55.254989     1     0     0     0     8   1.560
       178.995873      460.788954      179.003292     1     0     0     0     1   1.560
       357.852397      322.496456      373.334620     1     0     0     0     7   1.560
       225.292285      245.261320      294.232262     1     0     0     0     6   1.560
       380.300014      220.497294      350.014553     1     0     0     0     6   1.560
       245.852676      115.164909      154.026563     1     0     0     0     7   1.560
        88.771047      428.009764      446.055990     1     0     0     0     8   1.560
       308.211759      153.694747       82.746789     1     0     0     0     4   1.560
       155.908227      443.042733      169.988345     1     0     0     0     1   1.560
       287.908172      495.122521      380.039389     1     0     0     0     4   1.560
       346.993063       92.583563      244.973504     1     0     0     0     8   1.560
       114.457728      499.102996      227.282647     1     0     0     0     1   1.560
       389.640399      413.474184      302.144914     1     0     0     0     4   1.560
       406.593652      456.234926      414.591814     1     0     0     0     6   1.560
       492.998638       32.857196      413.049510     1     0     0     0     5   1.560
       256.764826      194.073081      496.090729     1     0     0     0     8   1.560
       344.095245      399.533714      217.023839     1     0     0     0     3   1.560
       493.293253      445.000640      154.673119     1     0     0     0     1   1.560
       412.421002      483.881859      404.387688     1     0     0     0     2   1.560
       370.738977      451.570223      123.188038     1     0     0     0     4   1.560
       260.870565      422.226926       99.732614     1     0     0     0     3   1.560
       248.110745      168.813242      315.791935     1     0     0     0     2   1.560
       257.418846      433.970011      461.066221     1     0     0     0     2   1.560
       131.952884      122.146960      138.522728     1     0     0     0     2   1.560
       330.176647      248.133936       20.555458     1     0     0     0     2   1.560
       442.293929       81.609553       18.995804     1     0     0     0     3   1.560
       314.612286      161.870025      231.365365     1     0     0     0     5   1.560
       418.614227      257.387874      170.429137     1     0     0     0     7   1.560
       235.155762      320.000587      438.414548     1     0     0     0     4   1.560
       182.827946      223.092564      362.011632     1     0     0     0     4   1.560
       422.040952      208.138809       30.428220     1     0     0     0     2   1.560
        32.387429      195.762381      457.379756     1     0     0     0     2   1.560
        93.530247      129.562828      119.240859     1     0     0     0     8   1.560
       313.531439      399.579008       41.530793     1     0     0     0     4   1.560
       417.501025      118.488166       35.302302     1     0     0     0     4   1.560
       148.527145       39.404768       60.248951     1     0     0     0     6   1.560
       268.394426       95.474349      167.055878     1     0     0     0     3   1.560
        68.008886      305.513305       62.138326     1     0     0     0     7   1.560
       424.216139      408.538592       52.510088     1     0     0     0     3   1.560
       144.582537      187.951146      283.353786     1     0     0     0     5   1.560
       333.461813      330.253871      193.189725     1     0     0     0     6   1.560
       274.981342       81.485677      479.193925     1     0     0     0     3   1.560
       425.400761      284.587270       21.782242     1     0     0     0     5   1.560
       305.906735      449.920681      172.548845     1     0     0     0     4   1.560
       265.765244       81.699543      108.849650     1     0     0     0     3   1.560
       191.713990      184.067309      297.535396     1     0     0     0     3   1.560
       153.303804      187.660118      261.486418     1     0     0     0     2   1.560
       373.156268      140.690790      308.363162     1     0     0     0     8   1.560
       425.579477       98.080149       41.570181     1     0     0     0     4   1.560
       423.555890      345.657068      238.659873     1     0     0     0     1   1.560
       453.394122      159.894414      234.197495     1     0     0     0     2   1.560
       314.283092        7.792754      445.714132     1     0     0     0     1   1.560
        49.457056      298.108682      234.411163     1     0     0     0     8   1.560
       477.145565      396.674018      288.915799     1     0     0     0     8   1.560
       497.895401      376.617505      110.421840     1     0     0     0     3   1.560
       421.013265       13.700987       21.012336     1     0     0     0     1   1.560
       364.397761      367.553569       55.160789     1     0     0     0     1   1.560
       404.622843      481.182078        8.496238     1     0     0     0     8   1.560
        75.721493      168.009092      256.549571     1     0     0     0     1   1.560
       123.727400      499.602790      336.518109     1     0     0     0     8   1.560
        69.634689      454.845218      265.821458     1     0     0     0     1   1.560
        54.544497      407.758569      240.097610     1     0     0     0     3   1.560
       316.488044      175.190015      430.051151     1     0     0     0     3   1.560
       255.328735      207.558152      313.735506     1     0     0     0     8   1.560
       155.919823      106.819314       41.369087     1     0     0     0     7   1.560
       487.169262        7.352413      430.756823     1     0     0     0     8   1.560
       335.305100      485.829187      131.465283     1     0     0     0     4   1.560
       185.342450      370.144860      222.135043     1     0     0     0     4   1.560
       378.897931       70.096672      479.574522     1     0     0     0     8   1.560
       265.941941       22.907075      389.168512     1     0     0     0     8   1.560
       107.195982      168.015647      496.604764     1     0     0     0     2   1.560
        97.545475      230.743220      370.623903     1     0     0     0     7   1.560
       197.016721      457.977311      427.327437     1     0     0     0     7   1.560
       140.658983      493.716134      118.142338     1     0     0     0     8   1.560
       341.324518      274.055146      312.251477     1     0     0     0     4   1.560
       468.352668      113.675772       42.162342     1     0     0     0     1   1.560
       223.837151        6.897837       35.618885     1     0     0     0     6   1.560
        12.043946       60.912634      263.981463     1     0     0     0     2   1.560
       394.938792      309.418397      319.682014     1     0     0     0     1   1.560
        83.034813       54.388246        8.617203     1     0     0     0     1   1.560
        94.219136      256.064918       25.222397     1     0     0     0     6   1.560
       477.552956       39.552687      274.351302     1     0     0     0     2   1.560
       125.090458      497.509724      133.344996     1     0     0     0     4   1.560
       101.434031      353.766720      110.052486     1     0     0     0     3   1.560
       272.110524       40.097725      173.190622     1     0     0     0     6   1.560
       431.402316      425.960170      322.285421     1     0     0     0     4   1.560
       155.604966      450.063574      413.820634     1     0     0     0     4   1.560
       193.812735      309.523659      499.488658     1     0     0     0     5   1.560
       293.096909      177.388131       30.938101     1     0     0     0     5   1.560
       279.150169      403.524991      142.549377     1     0     0     0     1   1.560
       111.806824      152.434108       21.893458     1     0     0     0     7   1.560
       483.301058      439.535439      392.163928     1     0     0     0     6   1.560
       237.083902      223.241983      399.988006     1     0     0     0     5   1.560
       228.204309      398.545609      141.831601     1     0     0     0     6   1.560
       141.315129       74.392583      497.055348     1     0     0     0     3   1.560
       212.289400      308.849948      191.114667     1     0     0     0     3   1.560
       342.671586       72.377072      426.291677     1     0     0     0     2   1.560
       281.172758      149.855919      256.591077     1     0     0     0     2   1.560
       437.104306      114.355461      158.172305     1     0     0     0     5   1.560
       380.577781      252.288097      125.799179     1     0     0     0     1   1.560
       325.053487      489.226574      230.588538     1     0     0     0     4   1.560
       119.689155      199.740709      470.360306     1     0     0     0     8   1.560
       481.883535      293.157316      442.220477     1     0     0     0     3   1.560
       204.917092      440.113302      323.827505     1     0     0     0     8   1.560
       203.942075      283.485937      309.830647     1     0     0     0     3   1.560
       258.630763       50.716365      363.362007     1     0     0     0     5   1.560
       409.551554      236.614719      464.040317     1     0     0     0     1   1.560
       256.133581      449.021893      493.821242     1     0     0     0     4   1.560
       204.930295      478.805994      364.771421     1     0     0     0     5   1.560
       266.079943      187.096373       62.569437     1     0     0     0     8   1.560
       153.351973      433.312748       82.829507     1     0     0     0     4   1.560
        91.402928      103.379346      469.408653     1     0     0     0     5   1.560
       422.068746      127.796789      351.028155     1     0     0     0     5   1.560
        32.020162      230.326213      380.516991     1     0     0     0     7   1.560
       291.323745      382.708950       60.108287     1     0     0     0     1   1.560
       241.161618       45.610193      371.895615     1     0     0     0     4   1.560
       481.137977       78.034314      279.813241     1     0     0     0     6   1.560
       400.666418      184.584485       26.495577     1     0     0     0     4   1.560
       331.751099      483.541369      327.395428     1     0     0     0     2   1.560
       303.691954      163.640777      242.804057     1     0     0     0     6   1.560
       377.262704      324.475864      145.540926     1     0     0     0     1   1.560
       148.571683      174.510026       86.257975     1     0     0     0     4   1.560
       331.396079      339.937507      423.412020     1     0     0     0     1   1.560
       361.217032      404.814611      484.097630     1     0     0     0     1   1.560
       271.379354       17.015534      107.384228     1     0     0     0     8   1.560
       206.952026      175.913320       61.486221     1     0     0     0     8   1.560
        10.406102      174.483028      383.945949     1     0     0     0     2   1.560
        30.616569       84.335707       44.581961     1     0     0     0     7   1.560
       280.795735      141.870000      433.476665     1     0     0     0     6   1.560
       451.961773      466.727735      235.517469     1     0     0     0     6   1.560
       461.029422      265.398670       69.725629     1     0     0     0     7   1.560
       261.444495      460.931202      446.469876     1     0     0     0     4   1.560
         4.873775       97.782790       92.236612     1     0     0     0     1   1.560
       132.749012      175.429173      123.591114     1     0     0     0     4   1.560
       316.359438      389.390755      452.850332     1     0     0     0     3   1.560
       131.568615      315.391306      344.221414     1     0     0     0     4   1.560
       407.791181       33.253847      350.150336     1     0     0     0     7   1.560
       316.704204      292.041320      240.727232     1     0     0     0     6   1.560
       265.857797      372.094905      317.266088     1     0     0     0     6   1.560
       375.197198      170.948610       70.919775     1     0     0     0     5   1.560
       217.007132      453.468885      176.575911     1     0     0     0     8   1.560
       174.349551      252.982076      170.851896     1     0     0     0     8   1.560
        48.565531        9.347965       65.930095     1     0     0     0     8   1.560
        96.166279      143.169492      119.948948     1     0     0     0     3   1.560
       377.063190       16.013405       37.234757     1     0     0     0     1   1.560
       183.424881      312.626451      250.861709     1     0     0     0     7   1.560
       165.917212      441.615555      363.878815     1     0     0     0     7   1.560
       123.561258      211.473577      110.525406     1     0     0     0     7   1.560
       437.961515      453.639621      446.584766     1     0     0     0     1   1.560
       257.664769      321.273118      360.216535     1     0     0     0     7   1.560
        80.134190       66.705526      442.855566     1     0     0     0     4   1.560
       242.866770      330.406124      265.269700     1     0     0     0     4   1.560
       414.847251      251.107796      438.830148     1     0     0     0     3   1.560
       197.217869      122.212116      124.465010     1     0     0     0     5   1.560
       147.898555      127.331684      140.095263     1     0     0     0     2   1.560
       337.322835      219.449500      187.226161     1     0     0     0     4   1.560
        54.804790      418.105042      373.680487     1     0     0     0     8   1.560
       119.789459      331.282061       76.709031     1     0     0     0     4   1.560
       453.788925      437.715718      320.123557     1     0     0     0     1   1.560
       397.696641      365.392704       21.519472     1     0     0     0     2   1.560
       100.652056       15.345051      488.028233     1     0     0     0     3   1.560
       471.218888      246.474266       28.865999     1     0     0     0     6   1.560
       275.826138      443.168222      105.672225     1     0     0     0     1   1.560
       491.636696      229.720969      131.064470     1     0     0     0     4   1.560
       343.997318      357.252107      447.132075     1     0     0     0     7   1.560
       159.141687      204.052404       16.436522     1     0     0     0     7   1.560
       217.837044      373.224631      447.797216     1     0     0     0     8   1.560
        48.658719       51.629322      467.309105     1     0     0     0     4   1.560
       212.157829      302.749394       95.997841     1     0     0     0     2   1.560
       244.003630      492.270470      433.652061     1     0     0     0     2   1.560
       126.433155      151.072200      289.165734     1     0     0     0     3   1.560
       488.199322       90.452977       81.861324     1     0     0     0     6   1.560
       334.069610      298.061889      200.415842     1     0     0     0     7   1.560
       363.218156      272.857844      417.624766     1     0     0     0     6   1.560
       225.879374      474.600082      387.559928     1     0     0     0     4   1.560
       303.745589      471.437653      472.082745     1     0     0     0     4   1.560
       483.486605       79.031105       30.512595     1     0     0     0     8   1.560
       115.193718      193.661254      324.769546     1     0     0     0     6   1.560
        74.616535      455.278120      487.580404     1     0     0     0     1   1.560
       441.199217      413.528592      278.032107     1     0     0     0     4   1.560
       409.725015      150.599881      277.471460     1     0     0     0     7   1.560
       188.207252      239.672908      414.898951     1     0     0     0     3   1.560
        66.992151      309.156438      233.714065     1     0     0     0     4   1.560
       338.632922      228.399364      308.467440     1     0     0     0     8   1.560
        20.491392      292.484798      292.585537     1     0     0     0     4   1.560
        92.483897      137.375871      470.481181     1     0     0     0     3   1.560
       324.692774       65.447047      357.032385     1     0     0     0     6   1.560
        61.614214       33.625105      367.874382     1     0     0     0     2   1.560
       349.750822      123.792101      303.415475     1     0     0     0     5   1.560
       145.930473      195.497399       60.039812     1     0     0     0     3   1.560
        85.232547       86.933966      371.088046     1     0     0     0     4   1.560
       267.145496        9.186790      248.542169     1     0     0     0     8   1.560
       459.400569        9.517062      185.921168     1     0     0     0     7   1.560
       453.491527      374.933636      240.419683     1     0     0     0     1   1.560
       247.577810      372.242062      443.638777     1     0     0     0     8   1.560
       404.587110      472.373963      469.348968     1     0     0     0     2   1.560
        58.008395      176.196990      343.439527     1     0     0     0     7   1.560
       424.478174      130.739159      251.292462     1     0     0     0     2   1.560
       369.442471       73.380523      227.679447     1     0     0     0     2   1.560
       112.544327      101.456227      481.086681     1     0     0     0     8   1.560
       436.733988      189.265064       17.593417     1     0     0     0     6   1.560
       312.070845      148.637989      121.244937     1     0     0     0     5   1.560
       120.877693       58.991225      321.234089     1     0     0     0     4   1.560
       121.636097      403.216005      274.376885     1     0     0     0     4   1.560
       184.191333       46.996074      183.776292     1     0     0     0     1   1.560
       452.578948      371.482523      494.777523     1     0     0     0     2   1.560
       357.702457       76.541455      270.414482     1     0     0     0     5   1.560
       338.641806      485.167326       43.173569     1     0     0     0     7   1.560
        83.586564      117.750962      211.615392     1     0     0     0     4   1.560
       443.341824       15.338709      217.312428     1     0     0     0     7   1.560
        82.396039      344.215246      313.258932     1     0     0     0     1   1.560
       257.448593      427.279013      158.255416     1     0     0     0     7   1.560
       273.882126      307.324001       78.884811     1     0     0     0     3   1.560
       424.985679      233.497527      166.892154     1     0     0     0     1   1.560
        30.103855      253.320868      448.231087     1     0     0     0     8   1.560
       252.126316      336.677738       30.284679     1     0     0     0     2   1.560
       210.322338       91.239055      128.192587     1     0     0     0     1   1.560
       295.491576       20.023462      319.912094     1     0     0     0     5   1.560
       336.018915      192.761724      384.868886     1     0     0     0     2   1.560
       208.526073       36.239130       68.328548     1     0     0     0     3   1.560
       346.477362       59.218491       24.194388     1     0     0     0     4   1.560
       393.663568      153.614616      261.759614     1     0     0     0     6   1.560
       116.798924      129.268742      136.876287     1     0     0     0     5   1.560
        95.547515      283.720791      455.258758     1     0     0     0     7   1.560
       212.940153      188.722131       44.541303     1     0     0     0     3   1.560
       238.982576      208.287717       92.142876     1     0     0     0     3   1.560
       135.199750      183.703333      337.125643     1     0     0     0     3   1.560
        87.109624      260.995128       24.859950     1     0     0     0     3   1.560
       460.002124      328.261266      379.744438     1     0     0     0     6   1.560
       239.890678       14.977860      384.665958     1     0     0     0     2   1.560
       202.301954      291.415945        4.810287     1     0     0     0     1   1.560
       314.744480       82.825724      351.726925     1     0     0     0     8   1.560
        54.842797      271.606528      496.975928     1     0     0     0     2   1.560
       447.259145      232.040050      334.947734     1     0     0     0     4   1.560
       246.923703       16.380999      159.566502     1     0     0     0     6   1.560
        50.188602       86.721794      303.720559     1     0     0     0     5   1.560
        88.730699      309.405076      297.433434     1     0     0     0     4   1.560
       213.637346      457.534021       24.824797     1     0     0     0     7   1.560
       130.702149      414.390361       27.693332     1     0     0     0     2   1.560
       306.259382      236.920327      133.686917     1     0     0     0     5   1.560
        41.363902      315.556043      300.634460     1     0     0     0     8   1.560
       216.159727       13.836652      252.280296     1     0     0     0     3   1.560
       147.724071      178.212712      413.896562     1     0     0     0     2   1.560
        56.914722      421.382840      240.470783     1     0     0     0     8   1.560
       461.107700       80.829482      465.761865     1     0     0     0     5   1.560
       103.206393      449.457666      225.211190     1     0     0     0     4   1.560
       149.737145       32.414165      356.567742     1     0     0     0     5   1.560
       107.122444      370.166726      132.240834     1     0     0     0     1   1.560
       369.372985      132.858272      181.178042     1     0     0     0     4   1.560
       293.957875      254.557749      252.169909     1     0     0     0     8   1.560
       128.261666       24.232292      287.876643     1     0     0     0     5   1.560
       177.802118      143.389535      438.289422     1     0     0     0     6   1.560
       333.354683      333.405240       33.089321     1     0     0     0     8   1.560
        35.868333      377.310842      399.137029     1     0     0     0     3   1.560
       221.862937      457.016794      208.110958     1     0     0     0     5   1.560
       485.376974      100.154515      295.225139     1     0     0     0     2   1.560
        32.583032      419.750913      411.947097     1     0     0     0     5   1.560
       461.154964      295.752185      395.472735     1     0     0     0     7   1.560
        40.765723      222.303858      306.385043     1     0     0     0     2   1.560
       371.095276      422.523524      461.318643     1     0     0     0     5   1.560
       434.027997      260.935961      250.350145     1     0     0     0     1   1.560
        41.613681       64.220912      487.479181     1     0     0     0     2   1.560
       288.570483      214.308224        5.556330     1     0     0     0     3   1.560
       111.979127      367.578200      209.315439     1     0     0     0     4   1.560
       297.273973      241.157665       35.440233     1     0     0     0     8   1.560
        88.231436       36.031052      146.212295     1     0     0     0     3   1.560
       260.127641      230.259494      264.540933     1     0     0     0     4   1.560
        18.565619       89.634178      444.358039     1     0     0     0     8   1.560
       499.155410      415.871746      243.945983     1     0     0     0     7   1.560
       131.905648       66.846009       97.075752     1     0     0     0     4   1.560
       388.883166      336.416331      436.403282     1     0     0     0     2   1.560
       468.801446      224.997191      342.325041     1     0     0     0     3   1.560
       289.231980      422.029456      136.512639     1     0     0     0     1   1.560
       262.015153      379.667407      316.212301     1     0     0     0     4   1.560
       351.212003      442.015691      211.878751     1     0     0     0     2   1.560
       445.800895      261.353860      141.888353     1     0     0     0     3   1.560
        59.168203      416.201694      196.701375     1     0     0     0     8   1.560
        75.891089       81.249085      474.870665     1     0     0     0     4   1.560
       321.342490      164.281492      416.261780     1     0     0     0     6   1.560
        67.571198      343.336850      450.254399     1     0     0     0     6   1.560
       154.463589       87.043505       79.978574     1     0     0     0     4   1.560
       437.990110      185.684634      124.251609     1     0     0     0     8   1.560
         9.686178      494.833188      381.024731     1     0     0     0     5   1.560
       411.269237      298.884100      273.296744     1     0     0     0     8   1.560
        14.666531      362.516318      234.248392     1     0     0     0     1   1.560
       350.115813       55.979655      415.842922     1     0     0     0     1   1.560
       183.325369      279.580217      141.650093     1     0     0     0     7   1.560
       146.379249      364.252819      210.405153     1     0     0     0     3   1.560
       177.373742       89.671346      155.960897     1     0     0     0     8   1.560
       338.344877      120.249773      343.339399     1     0     0     0     3   1.560
       227.372536        0.722819      236.429649     1     0     0     0     3   1.560
       465.976967       24.336991      134.121278     1     0     0     0     5   1.560
       385.697858       95.163170      316.806825     1     0     0     0     5   1.560
       461.837739      488.580529      164.005830     1     0     0     0     8   1.560
       123.719295      391.535825      419.088018     1     0     0     0     4   1.560