ITEM: TIMESTEP
0
ITEM: NUMBER OF ATOMS
        7880
ITEM: BOX BOUNDS pp pp pp
  0.0000000E+00   500.000000000000     
  0.0000000E+00   500.000000000000     
  0.0000000E+00   500.000000000000     
ITEM: ATOMS x y z f1 f2 f3 f4 orient radius
        80.709956      168.344381       61.522637     1     0     0     0     6   1.560
       440.460423      376.293351      343.066986     1     0     0     0     1   1.560
       429.435509      464.636730      357.745904     1     0     0     0     6   1.560
         8.109596      331.351746      304.755980     1     0     0     0     1   1.560
       460.964866      182.947114      297.155049     1     0     0     0     5   1.560
       298.608884       63.780548      216.805005     1     0     0     0     2   1.560
       452.511745       65.177205      316.685202     1     0     0     0     7   1.560
       415.787731      441.998675        1.882802     1     0     0     0     3   1.560
       111.976163      270.887794        7.590811     1     0     0     0     1   1.560
       371.984411      270.449652      248.803671     1     0     0     0     8   1.560
       381.546783      417.415766      218.019253     1     0     0     0     8   1.560
        29.146777      359.464587      488.177001     1     0     0     0     5   1.560
       449.621954      453.948080      430.746127     1     0     0     0     3   1.560
       269.225995       77.541811      239.882079     1     0     0     0     7   1.560
        46.573716      290.651166       69.599176     1     0     0     0     6   1.560
       293.952688      329.492407        3.832293     1     0     0     0     4   1.560
       395.563646      230.552482      225.363566     1     0     0     0     7   1.560
        91.590510      481.546686       46.323563     1     0     0     0     2   1.560
       114.466056      236.545140      261.437892     1     0     0     0     6   1.560
        52.352394       69.168824       37.911224     1     0     0     0     2   1.560
       371.770266      391.927232      319.143544     1     0     0     0     1   1.560
        67.155910       98.445620       50.559866     1     0     0     0     3   1.560
        14.513191      473.734589      205.888627     1     0     0     0     6   1.560
        24.967263      114.271772      484.825737     1     0     0     0     5   1.560
       193.187141      150.661881      162.148680     1     0     0     0     7   1.560
       378.441182      283.260410      388.319503     1     0     0     0     6   1.560
       282.267820      233.858196      253.847509     1     0     0     0     6   1.560
       150.009181      181.011345      351.147257     1     0     0     0     6   1.560
       287.944670      138.055579      372.705820     1     0     0     0     6   1.560
        48.234518      403.567797       61.324488     1     0     0     0     8   1.560
       473.632183       35.611247      306.315063     1     0     0     0     8   1.560
       417.076719      294.331561       38.600383     1     0     0     0     4   1.560
       472.770000      188.642095      225.286360     1     0     0     0     3   1.560
       363.883367      487.449822      444.052249     1     0     0     0     4   1.560
        42.523182      495.013129      372.299609     1     0     0     0     6   1.560
       303.373161      365.645774      419.927218     1     0     0     0     7   1.560
       194.833004      154.471416      287.354964     1     0     0     0     1   1.560
       120.865191       13.112607      312.613139     1     0     0     0     6   1.560
       271.106455      452.895629      260.941048     1     0     0     0     2   1.560
       178.492393      116.354801      354.184358     1     0     0     0     6   1.560
       359.484890       47.330443      117.282365     1     0     0     0     2   1.560
       191.990767      241.475882      352.898977     1     0     0     0     5   1.560
       437.339584      416.812255      243.541900     1     0     0     0     2   1.560
       127.551488      417.995406       53.672414     1     0     0     0     4   1.560
       182.161023      460.788954      182.168442     1     0     0     0     3   1.560
       356.269822      320.913881      371.752045     1     0     0     0     2   1.560
       225.292285      245.261320      294.232262     1     0     0     0     6   1.560
       380.300014      223.662444      350.014553     1     0     0     0     8   1.560
       244.270102      113.582334      155.609138     1     0     0     0     7   1.560
        87.188472      429.592339      444.473416     1     0     0     0     4   1.560
       308.211759      153.694747       82.746789     1     0     0     0     4   1.560
       155.908227      443.042733      169.988345     1     0     0     0     1   1.560
       287.908172      495.122521      380.039389     1     0     0     0     4   1.560
       348.575638       94.166138      243.390929     1     0     0     0     8   1.560
       119.205452        0.685571      232.030372     1     0     0     0     3   1.560
       388.057824      415.056758      300.562339     1     0     0     0     4   1.560
       406.593652      456.234926      414.591814     1     0     0     0     6   1.560
       491.416064       31.274621      408.301786     1     0     0     0     5   1.560
       255.182251      195.655655      497.673304     1     0     0     0     6   1.560
       345.677819      397.951139      218.606414     1     0     0     0     3   1.560
       493.293253      445.000640      154.673119     1     0     0     0     1   1.560
       414.003576      482.299284      402.805113     1     0     0     0     5   1.560
       370.738977      448.405073      126.353188     1     0     0     0     7   1.560
       257.705415      422.226926       96.567465     1     0     0     0     4   1.560
       246.528171      167.230667      314.209360     1     0     0     0     2   1.560
       257.418846      433.970011      461.066221     1     0     0     0     2   1.560
       131.952884      122.146960      138.522728     1     0     0     0     2   1.560
       330.176647      248.133936       20.555458     1     0     0     0     2   1.560
       442.293929       81.609553       18.995804     1     0     0     0     3   1.560
       314.612286      161.870025      234.530515     1     0     0     0     6   1.560
       420.196802      258.970449      172.011712     1     0     0     0     1   1.560
       236.738336      321.583162      439.997122     1     0     0     0     1   1.560
       181.245371      224.675139      360.429057     1     0     0     0     4   1.560
       423.623527      209.721384       28.845645     1     0     0     0     8   1.560
        30.804854      194.179806      455.797181     1     0     0     0     2   1.560
        93.530247      129.562828      119.240859     1     0     0     0     3   1.560
       313.531439      399.579008       41.530793     1     0     0     0     4   1.560
       419.083600      120.070740       33.719728     1     0     0     0     8   1.560
       154.857444       33.074469       63.414101     1     0     0     0     3   1.560
       268.394426       95.474349      167.055878     1     0     0     0     3   1.560
        68.008886      305.513305       62.138326     1     0     0     0     7   1.560
       424.216139      408.538592       52.510088     1     0     0     0     3   1.560
       147.747686      184.785997      280.188636     1     0     0     0     5   1.560
       333.461813      330.253871      193.189725     1     0     0     0     6   1.560
       271.816192       81.485677      482.359075     1     0     0     0     6   1.560
       428.565911      287.752419       24.947392     1     0     0     0     1   1.560
       309.071885      446.755531      175.713994     1     0     0     0     3   1.560
       265.765244       81.699543      108.849650     1     0     0     0     3   1.560
       191.713990      184.067309      297.535396     1     0     0     0     3   1.560
       151.721229      189.242693      259.903844     1     0     0     0     4   1.560
       373.156268      140.690790      308.363162     1     0     0     0     8   1.560
       425.579477       98.080149       41.570181     1     0     0     0     4   1.560
       421.973315      344.074493      237.077298     1     0     0     0     2   1.560
       454.976696      161.476988      232.614920     1     0     0     0     8   1.560
       312.700517        9.375329      447.296707     1     0     0     0     6   1.560
        49.457056      298.108682      234.411163     1     0     0     0     8   1.560
       477.145565      396.674018      288.915799     1     0     0     0     8   1.560
       497.895401      376.617505      110.421840     1     0     0     0     3   1.560
       421.013265       13.700987       21.012336     1     0     0     0     1   1.560
       362.815186      369.136143       53.578214     1     0     0     0     4   1.560
       403.040268      479.599503       10.078813     1     0     0     0     7   1.560
        77.304068      166.426517      254.966996     1     0     0     0     5   1.560
       123.727400      499.602790      336.518109     1     0     0     0     8   1.560
        69.634689      454.845218      265.821458     1     0     0     0     1   1.560
        56.127072      406.175995      241.680185     1     0     0     0     3   1.560
       319.653194      175.190015      433.216301     1     0     0     0     1   1.560
       255.328735      207.558152      313.735506     1     0     0     0     8   1.560
       155.919823      106.819314       41.369087     1     0     0     0     7   1.560
       487.169262        7.352413      430.756823     1     0     0     0     8   1.560
       335.305100      485.829187      131.465283     1     0     0     0     4   1.560
       185.342450      370.144860      222.135043     1     0     0     0     4   1.560
       378.897931       70.096672      479.574522     1     0     0     0     8   1.560
       264.359367       21.324500      390.751087     1     0     0     0     7   1.560
       107.195982      164.850497      496.604764     1     0     0     0     2   1.560
        97.545475      227.578071      373.789053     1     0     0     0     3   1.560
       197.016721      457.977311      427.327437     1     0     0     0     7   1.560
       139.076408      492.133560      119.724913     1     0     0     0     7   1.560
       339.741943      272.472571      310.668902     1     0     0     0     2   1.560
       468.352668      113.675772       42.162342     1     0     0     0     1   1.560
       223.837151        6.897837       35.618885     1     0     0     0     6   1.560
        13.626520       62.495208      265.564038     1     0     0     0     1   1.560
       396.521367      307.835822      321.264589     1     0     0     0     3   1.560
        84.617388       55.970821       10.199778     1     0     0     0     1   1.560
        94.219136      256.064918       25.222397     1     0     0     0     6   1.560
       479.135531       41.135261      272.768727     1     0     0     0     8   1.560
       173.260848      439.261624      436.361449     1     0     0     0     8   1.560
        99.851456      355.349295      111.635060     1     0     0     0     6   1.560
       272.110524       40.097725      173.190622     1     0     0     0     6   1.560
       431.402316      425.960170      322.285421     1     0     0     0     4   1.560
       155.604966      450.063574      413.820634     1     0     0     0     4   1.560
       193.812735      309.523659      499.488658     1     0     0     0     5   1.560
       293.096909      177.388131       30.938101     1     0     0     0     5   1.560
       279.150169      403.524991      142.549377     1     0     0     0     1   1.560
       110.224249      154.016683       23.476033     1     0     0     0     6   1.560
       483.301058      439.535439      392.163928     1     0     0     0     6   1.560
       237.083902      223.241983      399.988006     1     0     0     0     5   1.560
       228.204309      401.710759      144.996751     1     0     0     0     1   1.560
       141.315129       74.392583      497.055348     1     0     0     0     3   1.560
       210.706825      310.432523      189.532092     1     0     0     0     4   1.560
       342.671586       72.377072      426.291677     1     0     0     0     8   1.560
       279.590183      148.273344      255.008502     1     0     0     0     2   1.560
       437.104306      114.355461      158.172305     1     0     0     0     5   1.560
       380.577781      252.288097      125.799179     1     0     0     0     1   1.560
       325.053487      489.226574      230.588538     1     0     0     0     4   1.560
       119.689155      199.740709      470.360306     1     0     0     0     8   1.560
       481.883535      293.157316      442.220477     1     0     0     0     3   1.560
       203.334517      438.530727      325.410080     1     0     0     0     7   1.560
       203.942075      283.485937      309.830647     1     0     0     0     3   1.560
       257.048189       52.298940      364.944581     1     0     0     0     6   1.560
       409.551554      236.614719      464.040317     1     0     0     0     1   1.560
       254.551006      450.604468      492.238668     1     0     0     0     4   1.560
       204.930295      478.805994      364.771421     1     0     0     0     5   1.560
       267.662518      185.513798       60.986862     1     0     0     0     5   1.560
       148.604248      434.895322       78.081783     1     0     0     0     2   1.560
        91.402928      103.379346      469.408653     1     0     0     0     7   1.560
       422.068746      127.796789      351.028155     1     0     0     0     5   1.560
        32.020162      230.326213      380.516991     1     0     0     0     7   1.560
       289.741170      381.126375       61.690862     1     0     0     0     7   1.560
       241.161618       45.610193      371.895615     1     0     0     0     4   1.560
       479.555402       79.616889      281.395816     1     0     0     0     6   1.560
       400.666418      184.584485       26.495577     1     0     0     0     4   1.560
       331.751099      483.541369      327.395428     1     0     0     0     2   1.560
       303.691954      163.640777      242.804057     1     0     0     0     6   1.560
       375.680129      322.893290      147.123500     1     0     0     0     7   1.560
       148.571683      174.510026       86.257975     1     0     0     0     4   1.560
       332.978654      341.520082      421.829445     1     0     0     0     8   1.560
       361.217032      404.814611      484.097630     1     0     0     0     1   1.560
       271.379354       17.015534      107.384228     1     0     0     0     8   1.560
       206.952026      175.913320       61.486221     1     0     0     0     8   1.560
        10.406102      174.483028      383.945949     1     0     0     0     2   1.560
        33.781719       87.500857       41.416812     1     0     0     0     8   1.560
       280.795735      141.870000      433.476665     1     0     0     0     6   1.560
       453.544348      465.145160      233.934895     1     0     0     0     5   1.560
       459.446847      263.816095       71.308204     1     0     0     0     7   1.560
       263.027070      462.513777      448.052450     1     0     0     0     1   1.560
         3.291201       99.365365       93.819187     1     0     0     0     6   1.560
       132.749012      175.429173      123.591114     1     0     0     0     4   1.560
       314.776864      390.973329      454.432907     1     0     0     0     6   1.560
       133.151190      313.808731      345.803989     1     0     0     0     3   1.560
       409.373756       31.671272      351.732911     1     0     0     0     3   1.560
       316.704204      292.041320      240.727232     1     0     0     0     6   1.560
       262.692647      368.929755      314.100939     1     0     0     0     2   1.560
       375.197198      170.948610       70.919775     1     0     0     0     5   1.560
       218.589707      455.051459      174.993336     1     0     0     0     8   1.560
       172.766976      254.564651      172.434471     1     0     0     0     6   1.560
        50.148106       10.930540       64.347520     1     0     0     0     8   1.560
        99.331428      143.169492      119.948948     1     0     0     0     8   1.560
       377.063190       16.013405       37.234757     1     0     0     0     1   1.560
       185.007456      314.209026      249.279135     1     0     0     0     8   1.560
       161.169488      436.867831      368.626539     1     0     0     0     7   1.560
       123.561258      211.473577      110.525406     1     0     0     0     7   1.560
       436.378940      455.222196      448.167341     1     0     0     0     6   1.560
       257.664769      321.273118      360.216535     1     0     0     0     7   1.560
        78.551615       68.288101      441.272991     1     0     0     0     4   1.560
       242.866770      330.406124      265.269700     1     0     0     0     4   1.560
       414.847251      251.107796      438.830148     1     0     0     0     3   1.560
       197.217869      122.212116      124.465010     1     0     0     0     5   1.560
       146.315980      128.914259      138.512688     1     0     0     0     4   1.560
       338.905410      217.866925      188.808736     1     0     0     0     3   1.560
        56.387365      419.687617      372.097912     1     0     0     0     8   1.560
       121.372033      329.699487       78.291606     1     0     0     0     3   1.560
       452.206351      436.133143      318.540983     1     0     0     0     2   1.560
       396.114066      363.810129       19.936897     1     0     0     0     2   1.560
       103.817205       12.179901      488.028233     1     0     0     0     5   1.560
       471.218888      246.474266       28.865999     1     0     0     0     6   1.560
       277.408713      441.585647      104.089650     1     0     0     0     5   1.560
       491.636696      229.720969      131.064470     1     0     0     0     2   1.560
       342.414743      355.669532      448.714650     1     0     0     0     7   1.560
       160.724261      205.634979       14.853947     1     0     0     0     8   1.560
       219.419618      371.642056      449.379791     1     0     0     0     3   1.560
        48.658719       51.629322      467.309105     1     0     0     0     4   1.560
       212.157829      302.749394       95.997841     1     0     0     0     2   1.560
       244.003630      492.270470      433.652061     1     0     0     0     2   1.560
       129.598305      154.237350      289.165734     1     0     0     0     8   1.560
       488.199322       90.452977       81.861324     1     0     0     0     6   1.560
       334.069610      298.061889      200.415842     1     0     0     0     7   1.560
       361.635581      274.440418      419.207341     1     0     0     0     6   1.560
       225.879374      474.600082      387.559928     1     0     0     0     4   1.560
       303.745589      471.437653      472.082745     1     0     0     0     4   1.560
       485.069180       83.778829       28.930020     1     0     0     0     6   1.560
       115.193718      193.661254      324.769546     1     0     0     0     6   1.560
        73.033960      453.695546      485.997829     1     0     0     0     2   1.560
       439.616643      415.111167      279.614682     1     0     0     0     6   1.560
       406.559865      150.599881      277.471460     1     0     0     0     4   1.560
       188.207252      239.672908      414.898951     1     0     0     0     3   1.560
        66.992151      309.156438      233.714065     1     0     0     0     4   1.560
       340.215496      229.981939      306.884865     1     0     0     0     8   1.560
        20.491392      292.484798      292.585537     1     0     0     0     4   1.560
        92.483897      137.375871      470.481181     1     0     0     0     3   1.560
       326.275349       63.864472      355.449810     1     0     0     0     5   1.560
        61.614214       33.625105      367.874382     1     0     0     0     2   1.560
       351.333397      122.209527      301.832900     1     0     0     0     5   1.560
       144.347898      197.079974       58.457237     1     0     0     0     4   1.560
        85.232547       86.933966      367.922896     1     0     0     0     2   1.560
       267.145496        9.186790      248.542169     1     0     0     0     8   1.560
       459.400569        9.517062      185.921168     1     0     0     0     7   1.560
       453.491527      374.933636      240.419683     1     0     0     0     1   1.560
       250.742960      372.242062      443.638777     1     0     0     0     3   1.560
       406.169685      473.956538      470.931543     1     0     0     0     1   1.560
        56.425820      174.614415      341.856952     1     0     0     0     2   1.560
       426.060749      132.321733      252.875037     1     0     0     0     1   1.560
       369.442471       73.380523      227.679447     1     0     0     0     2   1.560
       110.961752       99.873652      482.669256     1     0     0     0     7   1.560
       436.733988      189.265064       17.593417     1     0     0     0     6   1.560
       312.070845      148.637989      121.244937     1     0     0     0     5   1.560
       120.877693       58.991225      321.234089     1     0     0     0     4   1.560
       121.636097      403.216005      277.542035     1     0     0     0     6   1.560
       181.026183       43.830925      180.611143     1     0     0     0     2   1.560
       450.996373      373.065097      496.360098     1     0     0     0     6   1.560
       357.702457       76.541455      270.414482     1     0     0     0     6   1.560
       340.224381      483.584751       44.756144     1     0     0     0     3   1.560
        83.586564      117.750962      211.615392     1     0     0     0     4   1.560
       443.341824       15.338709      217.312428     1     0     0     0     7   1.560
        82.396039      344.215246      313.258932     1     0     0     0     1   1.560
       259.031168      428.861587      156.672841     1     0     0     0     8   1.560
       273.882126      307.324001       78.884811     1     0     0     0     3   1.560
       424.985679      233.497527      166.892154     1     0     0     0     1   1.560
        30.103855      253.320868      448.231087     1     0     0     0     8   1.560
       253.708890      338.260313       28.702104     1     0     0     0     8   1.560
       211.904913       89.656480      126.610012     1     0     0     0     5   1.560
       293.909001       18.440888      318.329520     1     0     0     0     2   1.560
       337.601489      191.179149      383.286311     1     0     0     0     2   1.560
       205.360924       39.404280       71.493697     1     0     0     0     6   1.560
       349.642512       56.053341       21.029239     1     0     0     0     5   1.560
       395.246143      152.032041      260.177039     1     0     0     0     5   1.560
       116.798924      129.268742      136.876287     1     0     0     0     5   1.560
        98.712665      283.720791      455.258758     1     0     0     0     4   1.560
       216.105303      185.556981       44.541303     1     0     0     0     5   1.560
       237.400001      209.870292       93.725451     1     0     0     0     6   1.560
       133.617175      185.285908      338.708218     1     0     0     0     6   1.560
        83.944474      264.160278       24.859950     1     0     0     0     4   1.560
       458.419549      329.843841      381.327013     1     0     0     0     6   1.560
       239.890678       14.977860      384.665958     1     0     0     0     7   1.560
       202.301954      291.415945        4.810287     1     0     0     0     1   1.560
       314.744480       82.825724      351.726925     1     0     0     0     8   1.560
        58.007946      271.606528        0.141077     1     0     0     0     1   1.560
       447.259145      232.040050      334.947734     1     0     0     0     4   1.560
       246.923703       16.380999      162.731651     1     0     0     0     3   1.560
        50.188602       86.721794      303.720559     1     0     0     0     5   1.560
        90.313274      310.987650      295.850859     1     0     0     0     8   1.560
       212.054771      459.116596       26.407371     1     0     0     0     6   1.560
       132.284724      415.972936       29.275907     1     0     0     0     1   1.560
       306.259382      236.920327      133.686917     1     0     0     0     5   1.560
        38.198753      318.721192      303.799610     1     0     0     0     6   1.560
       217.742301       12.254078      253.862871     1     0     0     0     3   1.560
       147.724071      178.212712      413.896562     1     0     0     0     2   1.560
        58.497297      419.800266      242.053358     1     0     0     0     3   1.560
       459.525125       82.412057      467.344440     1     0     0     0     6   1.560
       101.623818      447.875091      223.628615     1     0     0     0     2   1.560
       149.737145       32.414165      356.567742     1     0     0     0     5   1.560
       107.122444      370.166726      132.240834     1     0     0     0     1   1.560
       370.955559      131.275697      179.595467     1     0     0     0     5   1.560
       293.957875      254.557749      252.169909     1     0     0     0     8   1.560
       125.096516       27.397442      291.041792     1     0     0     0     6   1.560
       177.802118      143.389535      438.289422     1     0     0     0     6   1.560
       333.354683      333.405240       33.089321     1     0     0     0     7   1.560
        34.285758      375.728267      397.554455     1     0     0     0     2   1.560
       221.862937      457.016794      208.110958     1     0     0     0     5   1.560
       485.376974      100.154515      295.225139     1     0     0     0     2   1.560
        34.165607      421.333488      410.364522     1     0     0     0     8   1.560
       457.989815      292.587036      395.472735     1     0     0     0     2   1.560
        40.765723      222.303858      306.385043     1     0     0     0     2   1.560
       372.677851      424.106098      462.901218     1     0     0     0     1   1.560
       434.027997      260.935961      250.350145     1     0     0     0     1   1.560
        41.613681       64.220912      487.479181     1     0     0     0     2   1.560
       286.987908      215.890799        7.138904     1     0     0     0     6   1.560
       110.396552      369.160775      210.898014     1     0     0     0     6   1.560
       297.273973      241.157665       35.440233     1     0     0     0     8   1.560
        89.814010       37.613626      147.794870     1     0     0     0     1   1.560
       260.127641      230.259494      264.540933     1     0     0     0     4   1.560
        18.565619       89.634178      444.358039     1     0     0     0     8   1.560
         2.320559      412.706596      243.945983     1     0     0     0     3   1.560
       131.905648       66.846009       97.075752     1     0     0     0     4   1.560
       387.300591      334.833756      437.985857     1     0     0     0     7   1.560
       468.801446      224.997191      342.325041     1     0     0     0     3   1.560
       287.649405      420.446881      134.930064     1     0     0     0     2   1.560
       262.015153      379.667407      316.212301     1     0     0     0     4   1.560
       352.794578      440.433116      213.461326     1     0     0     0     3   1.560
       444.218320      262.936435      140.305778     1     0     0     0     4   1.560
        59.168203      416.201694      196.701375     1     0     0     0     8   1.560
        75.891089       81.249085      474.870665     1     0     0     0     4   1.560
       319.759915      165.864067      417.844355     1     0     0     0     6   1.560
        67.571198      343.336850      450.254399     1     0     0     0     6   1.560
       154.463589       87.043505       79.978574     1     0     0     0     4   1.560
       439.572685      187.267209      125.834184     1     0     0     0     1   1.560
         9.686178      494.833188      381.024731     1     0     0     0     5   1.560
       411.269237      298.884100      273.296744     1     0     0     0     1   1.560
        14.666531      362.516318      234.248392     1     0     0     0     1   1.560
       351.698388       54.397080      417.425497     1     0     0     0     3   1.560
       183.325369      279.580217      141.650093     1     0     0     0     7   1.560
       147.961824      362.670244      211.987728     1     0     0     0     3   1.560
       175.791167       88.088772      154.378322     1     0     0     0     2   1.560
       338.344877      120.249773      343.339399     1     0     0     0     3   1.560
       228.955110        2.305394      234.847074     1     0     0     0     8   1.560
       467.559542       22.754416      132.538703     1     0     0     0     5   1.560
       385.697858       95.163170      316.806825     1     0     0     0     5   1.560
       463.420314      486.997954      165.588405     1     0     0     0     3   1.560
       122.136720      393.118399      420.670593     1     0     0     0     6   1.560