ITEM: TIMESTEP
0
ITEM: NUMBER OF ATOMS
        7883
ITEM: BOX BOUNDS pp pp pp
  0.0000000E+00   500.000000000000     
  0.0000000E+00   500.000000000000     
  0.0000000E+00   500.000000000000     
ITEM: ATOMS x y z nV nH f3 f4 orient
       130.855633       21.029644      233.200392     1     0     0     0     2
       241.914065      418.734061      238.910835     1     0     0     0     8
       419.053439      386.208711      135.841180     1     0     0     0     7
       217.212246       18.239001      257.878923     1     0     0     0     4
        73.723204       95.075532      203.672897     1     0     0     0     3
       404.076016      405.199392      279.751451     1     0     0     0     6
       353.260753      312.395516      183.451402     1     0     0     0     3
       297.969479       59.290384      459.450329     1     0     0     0     5
       491.091312      334.752206      478.181324     1     0     0     0     6
        97.213622       65.957553       22.345211     1     0     0     0     2
       280.488203      159.394717      263.748459     1     0     0     0     6
         1.084807      487.775027      205.309528     1     0     0     0     7
       202.892690        8.774732      290.521409     1     0     0     0     1
       128.014499      317.174218       64.288427     1     0     0     0     4
       192.628523      200.996548      453.263820     1     0     0     0     5
       343.445076      365.028137       87.162361     1     0     0     0     1
       301.536484        0.966078      378.559533     1     0     0     0     5
        91.778873      368.422470      497.080570     1     0     0     0     3
       288.655859      440.574720      124.630788     1     0     0     0     2
        51.670802       90.238905      433.576177     1     0     0     0     2
        90.842406      488.456373      136.809255     1     0     0     0     2
       226.822498      497.329709      498.493950     1     0     0     0     8
       490.870799      447.055697      176.723686     1     0     0     0     8
       408.542791      332.190607      465.517240     1     0     0     0     6
       324.789973      436.278522      346.215699     1     0     0     0     4
       283.430419       22.577628      427.461961     1     0     0     0     2
       425.669213      297.199956      311.042370     1     0     0     0     1
       171.469235      377.258956      300.483060     1     0     0     0     2
       113.274578      215.736977      389.453671     1     0     0     0     4
       168.409437      229.908021      392.532603     1     0     0     0     8
       287.482348      262.826430      267.919121     1     0     0     0     4
        55.451474      395.047016      390.400433     1     0     0     0     5
       256.367447       79.502878       33.246662     1     0     0     0     1
       481.683325      305.051906      450.885373     1     0     0     0     3
       206.938795      447.456467      113.283168     1     0     0     0     1
       173.655146        5.445005       19.619824     1     0     0     0     5
       318.058575      226.032385       51.551703     1     0     0     0     2
       175.912636        8.294549      196.104689     1     0     0     0     4
       408.984961      170.564420      213.403670     1     0     0     0     7
       342.004220      375.438237      465.914165     1     0     0     0     2
        88.908519      204.435385       14.457433     1     0     0     0     8
       294.213512      258.851534      295.513144     1     0     0     0     8
        41.596928      173.329749      384.218179     1     0     0     0     4
       268.364027       64.226480      170.594624     1     0     0     0     8
       307.300800      457.288466      463.330290     1     0     0     0     1
       431.842968      131.476695      408.645090     1     0     0     0     7
        51.162394      262.071160      426.314737     1     0     0     0     7
       100.344960       98.954311      429.077707     1     0     0     0     6
         3.935178      351.940942      333.769975     1     0     0     0     2
        90.483355       91.451184       44.484000     1     0     0     0     7
       246.590639      122.656026      269.478878     1     0     0     0     8
       447.302942      311.163012      134.834869     1     0     0     0     7
        71.581411       72.530372      454.208935     1     0     0     0     1
       496.039228      176.140760      205.807713     1     0     0     0     6
       439.313341      268.478059      148.159971     1     0     0     0     5
       278.727380      166.631888      330.969348     1     0     0     0     6
        83.294899      156.373920      449.556671     1     0     0     0     8
       111.740318       12.703580      489.407173     1     0     0     0     7
       183.300674      252.949662      230.156475     1     0     0     0     4
       453.149091      253.426810      222.096139     1     0     0     0     3
       355.948744       65.386258       91.527111     1     0     0     0     7
        77.821743        5.581009      347.452883     1     0     0     0     8
       353.375017      150.087613       98.050231     1     0     0     0     6
       426.912212      415.869929       77.399151     1     0     0     0     8
       259.258301      374.240318      421.935504     1     0     0     0     2
       464.291233      402.100736      417.148932     1     0     0     0     8
       278.748585        5.298516       64.881757     1     0     0     0     1
       374.995211      438.528488      442.029782     1     0     0     0     5
       120.577835      414.001325      372.678434     1     0     0     0     6
       257.459776      261.349963      321.591393     1     0     0     0     1
       362.274420      199.880737      406.562931     1     0     0     0     7
       358.691924      169.294228      400.885371     1     0     0     0     1
       306.141171      328.180733      360.004260     1     0     0     0     8
       353.001604      340.954093      331.104016     1     0     0     0     3
       466.419644       60.812926       93.032939     1     0     0     0     3
       330.325314      420.637334      498.124565     1     0     0     0     5
       425.989753      306.549112       43.263447     1     0     0     0     4
       366.119437      462.343524      240.050768     1     0     0     0     6
       378.332145      456.689763      302.060327     1     0     0     0     6
       274.506461      485.997705      395.374953     1     0     0     0     7
       105.022543       43.260518      105.851108     1     0     0     0     3
        62.567882      444.479231      207.370283     1     0     0     0     1
       473.397164      203.182818      439.923147     1     0     0     0     6
       191.296556      229.681462      388.810760     1     0     0     0     8
       127.677580      218.455117      177.511982     1     0     0     0     1
       474.037232       97.585542      161.364245     1     0     0     0     3
       387.039295      362.026260      488.761864     1     0     0     0     6
       386.777030      423.739186      159.533714     1     0     0     0     1
       470.281356      128.346275      176.073995     1     0     0     0     3
       487.971147      390.297045      402.235268     1     0     0     0     7
       182.924590      363.768540      387.950253     1     0     0     0     4
       122.005141      368.245084      225.033026     1     0     0     0     3
       209.076110      472.136290      148.956267     1     0     0     0     2
       388.799781      311.842270      301.853692     1     0     0     0     6
       268.708619      390.823795       49.776291     1     0     0     0     7
       352.504781      296.296925      389.065216     1     0     0     0     5
       302.637567      310.052114      376.453970     1     0     0     0     1
       370.830045       54.325254      247.448937     1     0     0     0     4
       102.932653       15.689287      103.794659     1     0     0     0     8
       198.317921      175.588333      431.483340     1     0     0     0     4
       217.338182      299.482402      157.269444     1     0     0     0     1
       356.373444      322.289895      302.066354     1     0     0     0     7
       497.728821      292.488097      346.015580     1     0     0     0     4
        71.364314      337.359393       14.744992     1     0     0     0     3
       330.882806      253.835001      331.213103     1     0     0     0     7
       107.806109      149.496982      175.762682     1     0     0     0     3
       442.886251      483.698214      282.153440     1     0     0     0     5
       284.232325       53.557155      306.136117     1     0     0     0     2
         5.541483      480.143753      376.686169     1     0     0     0     4
       430.619046       54.489838      192.050287     1     0     0     0     8
       172.823943      454.596740      479.658299     1     0     0     0     5
       239.043425      435.037244       64.499013     1     0     0     0     1
       411.344110      472.003425      203.796888     1     0     0     0     6
        43.618227      491.282575       26.216383     1     0     0     0     7
       439.915501      148.507273      108.154498     1     0     0     0     7
        98.276806      152.284986      281.363693     1     0     0     0     3
       189.901411       33.682564      184.543538     1     0     0     0     4
       407.053877      368.615756       60.487305     1     0     0     0     4
       395.543240      217.239831       57.585807     1     0     0     0     7
       205.293133      486.568050       59.529726     1     0     0     0     6
       297.799465      128.810110      260.718569     1     0     0     0     5
       100.365213       68.924002      353.378733     1     0     0     0     6
       211.459631      194.787631      449.598478     1     0     0     0     5
       426.676188      166.401783       74.420292     1     0     0     0     7
       171.727350      135.886790      390.535489     1     0     0     0     8
        96.958895      341.131892      330.781638     1     0     0     0     7
        91.055065       49.819071      448.811238     1     0     0     0     6
       481.501773      121.517257       94.359402     1     0     0     0     7
       162.538744      442.521894      349.869336     1     0     0     0     7
        40.774190       85.251964      168.792374     1     0     0     0     7
       409.409323      319.409235      133.369265     1     0     0     0     2
       157.581304      479.570486      382.398190     1     0     0     0     7
       405.555335      203.418933      425.466644     1     0     0     0     7
       478.686466      474.432929      482.690812     1     0     0     0     4
        48.906305      270.422762      370.392142     1     0     0     0     1
       380.260513      118.892636      141.621164     1     0     0     0     8
       263.935122      284.770336      384.594369     1     0     0     0     2
       347.458909      384.878710      115.697047     1     0     0     0     3
         8.082253      337.357898      231.793116     1     0     0     0     6
       332.219619      347.394381      468.910437     1     0     0     0     3
       333.398928      251.406336       21.713248     1     0     0     0     7
       458.207016      194.628123      364.925844     1     0     0     0     1
       245.081003      484.196332      201.918441     1     0     0     0     5
       165.440384      230.497641      451.052111     1     0     0     0     1
       394.556122      223.399728      312.630375     1     0     0     0     8
       480.817065      472.296460      368.779112     1     0     0     0     1
       104.489396      102.716363      399.118414     1     0     0     0     1
       348.790107      409.091869      481.999992     1     0     0     0     1
        21.788992       83.859923       43.550870     1     0     0     0     5
       345.272070      304.502471       78.014012     1     0     0     0     8
       268.542489      308.974768      167.952737     1     0     0     0     8
       466.285570        2.233518      140.246730     1     0     0     0     4
       454.152569      398.429688      180.573046     1     0     0     0     3
       375.465255       77.358398      272.017495     1     0     0     0     8
       497.972397       74.104549       67.697663     1     0     0     0     8
       465.564971      432.282702      200.654988     1     0     0     0     6
       375.214042      466.677819      430.102759     1     0     0     0     1
       123.160090      155.494178      111.764043     1     0     0     0     5
       270.212984        6.979235       92.757630     1     0     0     0     4
       297.214464      386.162650       53.804329     1     0     0     0     4
       189.901213      298.908572      417.260975     1     0     0     0     3
       250.466458      283.502394      291.422734     1     0     0     0     2
       441.869680      380.438551       12.535069     1     0     0     0     5
       349.832896      398.426743      215.992327     1     0     0     0     6
       143.361324      360.468416      352.019153     1     0     0     0     3
       213.481232      421.969016        8.631736     1     0     0     0     6
        40.687215      394.827534      335.052466     1     0     0     0     5
       275.118832      472.064702      271.551021     1     0     0     0     7
       257.941262      282.776106      392.565077     1     0     0     0     2
       271.859956      312.575160      329.246050     1     0     0     0     7
       335.239832      456.019089      256.724494     1     0     0     0     6
       276.654945      105.773645      426.774151     1     0     0     0     6
       262.620592      168.692503      153.742636     1     0     0     0     8
         3.933331       19.260060      229.708280     1     0     0     0     7
       370.918407      450.025524       66.665695     1     0     0     0     6
       418.882436      240.326583      339.542227     1     0     0     0     2
        79.765268       83.903208      303.616894     1     0     0     0     7
         1.755122      491.877507      377.548623     1     0     0     0     8
       409.701434      198.440396      346.966923     1     0     0     0     1
        28.447841      488.844916      371.210883     1     0     0     0     8
       323.912610      402.495769      288.595278     1     0     0     0     5
       175.487518      472.178193      223.239372     1     0     0     0     8
        71.263648      397.425731      150.012147     1     0     0     0     2
        75.789745      454.210420      171.930436     1     0     0     0     5
       428.064965      421.553312      380.279798     1     0     0     0     8
       413.532554      299.807600       17.757952     1     0     0     0     1
       149.867245      430.461551      471.552506     1     0     0     0     5
        92.557652      311.414707      224.969621     1     0     0     0     5
       194.025620      493.757136      366.978019     1     0     0     0     1
       214.513689      481.035478      215.839212     1     0     0     0     7
        29.098349      395.624792       63.978830     1     0     0     0     5
       265.041963       77.412250      260.996909     1     0     0     0     6
       264.454820       18.375427      211.984510     1     0     0     0     8
        50.059331      474.862820      275.551028     1     0     0     0     7
        19.568366      271.237980       60.867670     1     0     0     0     4
       334.703039      207.150939      199.425057     1     0     0     0     3
        94.458457      483.508487      210.719411     1     0     0     0     8
       112.948271      126.684704      251.863919     1     0     0     0     6
       268.642248       34.425997      156.785712     1     0     0     0     1
       172.054194       61.871823      234.104245     1     0     0     0     8
       204.771848      316.613731      141.300263     1     0     0     0     7
       325.191087       47.372306      445.563153     1     0     0     0     7
        67.651087       69.707554      123.062188     1     0     0     0     2
       174.550180      474.867113      303.808141     1     0     0     0     7
       197.270823      338.304211        9.101844     1     0     0     0     8
        70.846381      383.160542      458.354527     1     0     0     0     6
       494.298048       73.958114      282.734043     1     0     0     0     8
       294.468711      169.852617      347.113487     1     0     0     0     6
       461.268473      328.856223      243.184852     1     0     0     0     7
       138.524716      119.463218      441.770308     1     0     0     0     1
       443.276560      289.924424      110.691488     1     0     0     0     5
       198.157951      438.352758      305.422559     1     0     0     0     6
       116.626376      328.111543      288.983045     1     0     0     0     3
       448.832114      446.591464       20.563510     1     0     0     0     2
       296.831249      364.798098      403.994255     1     0     0     0     1
       188.309945       47.263084      410.287561     1     0     0     0     6
         4.098607      139.667996      132.329477     1     0     0     0     8
        54.453440      213.719120      173.174742     1     0     0     0     1
       385.887141      110.255539      307.406462     1     0     0     0     6
       363.514904        8.391871      151.817681     1     0     0     0     6
       374.830129      285.030036      355.202873     1     0     0     0     3
       437.067413      388.280168      455.072272     1     0     0     0     6
       186.693255      111.957307      204.654805     1     0     0     0     5
       208.086775      468.158361       39.513135     1     0     0     0     3
       250.944172      271.203390      252.050321     1     0     0     0     1
       248.083915       15.008873      213.037608     1     0     0     0     3
       363.214707      343.986526      413.167916     1     0     0     0     2
       295.447768      240.960372      446.875111     1     0     0     0     7
       472.123344      356.963549      225.102297     1     0     0     0     4
       123.607737      348.771363      296.210792     1     0     0     0     4
        84.742155      151.495031      491.503896     1     0     0     0     5
       422.910661       41.594986      268.035154     1     0     0     0     6
       486.865829       16.496549      402.200347     1     0     0     0     6
       474.223484      170.308261       10.126514     1     0     0     0     5
       414.713074      278.258720      392.722364     1     0     0     0     8
        16.875278      152.243193      229.302163     1     0     0     0     3
       140.304438      330.308703      441.920700     1     0     0     0     2
       446.954174      394.502509      346.431295     1     0     0     0     8
       436.001036      472.388344      394.490096     1     0     0     0     4
       126.262351      290.008776      405.084773     1     0     0     0     2
       289.072793       19.833872      487.173517     1     0     0     0     7
        55.790346      250.734322      209.141681     1     0     0     0     4
       312.868231      362.139405      457.782248     1     0     0     0     6
       209.914574      237.230181      293.759810     1     0     0     0     8
       139.795529      400.574195      269.880962     1     0     0     0     8
       256.857055      137.195295       78.874584     1     0     0     0     2
         5.737856        1.815650      295.888861     1     0     0     0     3
       439.944501      254.270392       58.309968     1     0     0     0     3
       305.533749        8.061791      430.488700     1     0     0     0     2
       465.940549      115.564796      250.374346     1     0     0     0     4
       476.377498      164.740834      324.241183     1     0     0     0     7
       109.851110      220.773270      392.789965     1     0     0     0     4
       373.960293      262.954500      344.886381     1     0     0     0     6
       274.638584      237.438885      263.962259     1     0     0     0     6
       133.994690      216.070971      203.231994     1     0     0     0     5
       130.819338      142.618578       52.916835     1     0     0     0     5
       333.158270      498.670211      433.800916     1     0     0     0     2
        83.881993      131.727278        2.281533     1     0     0     0     4
        53.123504      111.430189      301.584273     1     0     0     0     3
       310.246580      133.148876      431.333765     1     0     0     0     5
       312.549434      249.591640      434.228525     1     0     0     0     8
       157.356254      185.041103      451.971750     1     0     0     0     3
       117.777616      324.320709        8.578822     1     0     0     0     2
       238.256914      402.639866      363.516518     1     0     0     0     1
       191.701647      176.007212      452.356529     1     0     0     0     4
       253.516803      258.471209       44.378126     1     0     0     0     3
       443.276190      122.491133      335.280688     1     0     0     0     2
       394.204871      315.148987      388.772533     1     0     0     0     3
       336.216181      240.500381      226.113019     1     0     0     0     6
       421.536750       22.120798      273.588420     1     0     0     0     8
        40.080178      424.738450       50.117651     1     0     0     0     5
       331.966025       91.787926      132.366274     1     0     0     0     8
       477.721008       60.968415        0.425051     1     0     0     0     6
       137.468013      173.210877      297.484738     1     0     0     0     2
       161.694872      452.618180      374.188120     1     0     0     0     5
       460.877933       34.822898      163.536517     1     0     0     0     3
       440.547315       11.419579       84.036230     1     0     0     0     3
       199.495489      223.797819      236.227328     1     0     0     0     8
       106.231926      101.111891      259.357678     1     0     0     0     7
       311.298657      143.658684      121.330899     1     0     0     0     2
       340.458963      274.168508       13.641870     1     0     0     0     7
       222.032912       96.801691      361.377912     1     0     0     0     3
       405.114290      140.785280      209.461058     1     0     0     0     2
         7.894717      374.818183       99.364017     1     0     0     0     3
       395.110070      206.143586       45.518010     1     0     0     0     5
        68.159710      489.842742      477.895327     1     0     0     0     1
       426.845914      348.103982       60.220134     1     0     0     0     6
       225.186990      466.182655      118.145579     1     0     0     0     3
       228.164854       37.343040      370.546058     1     0     0     0     4
       243.615939      345.019971      118.781503     1     0     0     0     3
       320.230420      172.735081      102.415571     1     0     0     0     4
       215.388632      106.141610      493.529053     1     0     0     0     1
        98.969412      486.166978      363.881165     1     0     0     0     5
        55.305715       94.718265      233.383637     1     0     0     0     4
       452.197576      303.277309      187.676587     1     0     0     0     6
       463.827274       66.834219      309.953530     1     0     0     0     8
       480.297055      248.213072      180.960702     1     0     0     0     2
       451.131289      400.864229      319.381715     1     0     0     0     8
       221.912020      489.910590      168.055872     1     0     0     0     8
       101.796469      426.222828      382.308182     1     0     0     0     6
       265.777328      278.591081       34.620752     1     0     0     0     3
       361.927346      180.331513      475.254289     1     0     0     0     7
       318.864089      443.826628      383.746679     1     0     0     0     3
       343.187216      361.100380       82.268778     1     0     0     0     1
       159.061288      263.076797       10.018460     1     0     0     0     7
        74.456966      352.478058      406.525238     1     0     0     0     8
       316.664878      107.045137       30.078808     1     0     0     0     4
        82.950917      145.135969      496.579312     1     0     0     0     5
       339.772064      106.568309      467.259105     1     0     0     0     7
       387.674773      227.932796      337.318054     1     0     0     0     4
         1.559564      112.506806       19.390684     1     0     0     0     6
        23.376285      413.542247      361.267694     1     0     0     0     3
       491.471945      249.486851      438.016779     1     0     0     0     3
       412.147028      216.604245      275.600296     1     0     0     0     8
       483.769307      122.828662      497.523459     1     0     0     0     7
       292.886721      162.822330      222.572828     1     0     0     0     8
       214.798088      209.313729      107.678917     1     0     0     0     5
       496.410586      418.127715      358.403609     1     0     0     0     3
       213.340400      263.558779       45.915598     1     0     0     0     1
       454.597667      101.482224      492.014520     1     0     0     0     7
        99.305855      176.153697      161.294809     1     0     0     0     8
       250.701166      499.389198       95.607489     1     0     0     0     6
       471.356921      248.859956      378.568593     1     0     0     0     7
        19.907260      273.678164      405.957052     1     0     0     0     7
       276.963842      380.610693      395.591288     1     0     0     0     8
       420.394302      376.639447      179.245837     1     0     0     0     4
       251.917562      154.432303       28.757178     1     0     0     0     4
       419.744631        7.318453      343.698230     1     0     0     0     5
       256.963965        4.693712      433.388645     1     0     0     0     4
       148.468530       18.030259      481.634563     1     0     0     0     5
       392.701740       58.930065      179.204321     1     0     0     0     3
        64.440440        0.079226       43.605642     1     0     0     0     5
       108.981703      231.888056      434.425664     1     0     0     0     5
       411.175085      175.931268       27.329806     1     0     0     0     1
       261.697566      164.778487      436.588807     1     0     0     0     1
       353.010414      293.248882      371.349425     1     0     0     0     6
       104.828352      268.424369      181.979469     1     0     0     0     4
       425.246265      191.734344       62.661020     1     0     0     0     6
        41.805818      251.039017      351.965147     1     0     0     0     8
       282.346832      295.445775       11.645568     1     0     0     0     8
       344.651725       83.178236      102.374537     1     0     0     0     1
        78.621092      402.471304      392.822363     1     0     0     0     6
       378.175682      179.162471       63.425735     1     0     0     0     3
       440.424782      114.556410      173.635450     1     0     0     0     4
       445.827912      467.662369       79.373577     1     0     0     0     8
       292.224107      487.239007      161.248156     1     0     0     0     7
       236.194658      252.171085      398.257359     1     0     0     0     1
       373.849355      325.770328       95.468375     1     0     0     0     1
       459.371763      341.224023      179.646356     1     0     0     0     3
       263.377092      448.921657      309.237591     1     0     0     0     4
       267.260056       90.687517      278.855262     1     0     0     0     2
        90.679642       88.314504      206.940669     1     0     0     0     2
       416.336991      391.801317      105.505858     1     0     0     0     8
       311.185474      186.233203      214.718314     1     0     0     0     5
        90.165964      320.680416      129.967752     1     0     0     0     2
       423.720559      290.610589      153.981001     1     0     0     0     8
       207.497716      154.137301       48.160747     1     0     0     0     1
        60.476104        4.821225      138.729078     1     0     0     0     8
       128.725034      405.076433      257.505950     1     0     0     0     7
       294.609474      228.289870      121.737900     1     0     0     0     1
       165.131567      124.700267      108.086345     1     0     0     0     7
       207.946808       69.495513      397.333460     1     0     0     0     3
        10.880147      462.555289      410.456096     1     0     0     0     5
        16.114251      125.654443      140.863439     1     0     0     0     1
       464.733945      293.933620      255.453474     1     0     0     0     4
       373.498330      377.396934      395.239221     1     0     0     0     1
       117.289440      179.184132       94.460018     1     0     0     0     8
       243.661990      376.610627      422.552405     1     0     0     0     4
        46.825460      164.140347      427.849622     1     0     0     0     6
       365.048255      100.368942      263.388462     1     0     0     0     2
       373.806736      263.428502       28.391591     1     0     0     0     2
       406.741308      433.290457      310.947910     1     0     0     0     1