ITEM: TIMESTEP
0
ITEM: NUMBER OF ATOMS
        7880
ITEM: BOX BOUNDS pp pp pp
  0.0000000E+00   500.000000000000     
  0.0000000E+00   500.000000000000     
  0.0000000E+00   500.000000000000     
ITEM: ATOMS x y z nV nH f3 f4 orient
       130.855633       21.029644      233.200392     1     0     0     0     2
       243.496640      417.151486      237.328260     1     0     0     0     5
       419.053439      379.878412      129.510881     1     0     0     0     2
       214.047096       18.239001      254.713773     1     0     0     0     4
        73.723204       95.075532      203.672897     1     0     0     0     6
       407.241166      405.199392      276.586301     1     0     0     0     8
       353.260753      312.395516      183.451402     1     0     0     0     3
       297.969479       59.290384      459.450329     1     0     0     0     5
       489.508737      333.169631      479.763898     1     0     0     0     7
       100.378772       62.792403       25.510360     1     0     0     0     3
       280.488203      159.394717      263.748459     1     0     0     0     6
        51.485656      376.657231      403.552234     1     0     0     0     1
       202.892690        8.774732      290.521409     1     0     0     0     1
       128.014499      317.174218       64.288427     1     0     0     0     4
       192.628523      200.996548      453.263820     1     0     0     0     5
       341.862501      363.445562       85.579786     1     0     0     0     2
       301.536484        0.966078      378.559533     1     0     0     0     5
        91.778873      368.422470      497.080570     1     0     0     0     3
       288.655859      440.574720      124.630788     1     0     0     0     2
        50.088228       91.821480      435.158751     1     0     0     0     6
        89.259831      486.873799      138.391830     1     0     0     0     7
       226.822498      497.329709      498.493950     1     0     0     0     6
       492.453373      445.473123      175.141111     1     0     0     0     5
       408.542791      332.190607      465.517240     1     0     0     0     6
       324.789973      436.278522      346.215699     1     0     0     0     4
       283.430419       22.577628      427.461961     1     0     0     0     1
       428.834362      294.034806      314.207519     1     0     0     0     3
       171.469235      377.258956      300.483060     1     0     0     0     2
       114.857153      214.154402      391.036245     1     0     0     0     3
       169.992012      228.325446      390.950028     1     0     0     0     5
       289.064922      264.409004      269.501696     1     0     0     0     1
        52.286325      398.212166      393.565583     1     0     0     0     6
       257.950021       77.920303       31.664087     1     0     0     0     5
       483.265900      303.469331      452.467948     1     0     0     0     3
       208.521369      449.039042      114.865742     1     0     0     0     1
       173.655146        5.445005       19.619824     1     0     0     0     5
       318.058575      226.032385       54.716853     1     0     0     0     7
       171.164912        9.877123      191.356964     1     0     0     0     2
       410.567536      175.312144      214.986245     1     0     0     0     1
       342.004220      375.438237      465.914165     1     0     0     0     1
        87.325944      202.852811       16.040008     1     0     0     0     7
       294.213512      258.851534      295.513144     1     0     0     0     8
        40.014353      174.912323      382.635604     1     0     0     0     4
       268.364027       64.226480      170.594624     1     0     0     0     8
       304.135650      460.453615      463.330290     1     0     0     0     4
       430.260393      129.894120      410.227664     1     0     0     0     7
        51.162394      262.071160      426.314737     1     0     0     0     7
       100.344960       98.954311      429.077707     1     0     0     0     6
         3.935178      351.940942      333.769975     1     0     0     0     2
        90.483355       91.451184       44.484000     1     0     0     0     7
       246.590639      122.656026      269.478878     1     0     0     0     8
       448.885517      312.745587      136.417444     1     0     0     0     1
        73.163986       70.947797      455.791510     1     0     0     0     3
       497.621803      177.723335      204.225138     1     0     0     0     8
       439.313341      268.478059      148.159971     1     0     0     0     5
       277.144805      165.049313      329.386773     1     0     0     0     2
        83.294899      156.373920      449.556671     1     0     0     0     8
       111.740318       12.703580      489.407173     1     0     0     0     7
       178.552950      254.532237      234.904199     1     0     0     0     6
       451.566517      255.009385      220.513564     1     0     0     0     4
       355.948744       65.386258       91.527111     1     0     0     0     7
        77.821743        5.581009      347.452883     1     0     0     0     8
       351.792442      151.670188       99.632806     1     0     0     0     6
       428.494787      417.452504       75.816576     1     0     0     0     8
       259.258301      374.240318      421.935504     1     0     0     0     2
       465.873808      403.683310      415.566357     1     0     0     0     8
       278.748585        5.298516       64.881757     1     0     0     0     1
       374.995211      438.528488      442.029782     1     0     0     0     5
       120.577835      414.001325      372.678434     1     0     0     0     6
       255.877201      262.932538      323.173968     1     0     0     0     6
       359.109270      199.880737      406.562931     1     0     0     0     4
       360.274499      167.711653      399.302796     1     0     0     0     5
       304.558597      326.598158      361.586835     1     0     0     0     7
       351.419029      339.371518      329.521441     1     0     0     0     2
       464.837069       62.395500       91.450365     1     0     0     0     4
       328.742739      419.054760      496.541991     1     0     0     0     2
       427.572328      304.966537       44.846021     1     0     0     0     3
       364.536862      460.760949      238.468193     1     0     0     0     2
       378.332145      456.689763      302.060327     1     0     0     0     6
       276.089036      487.580280      393.792378     1     0     0     0     8
       105.022543       43.260518      105.851108     1     0     0     0     3
        62.567882      444.479231      207.370283     1     0     0     0     4
       473.397164      203.182818      439.923147     1     0     0     0     6
       191.296556      229.681462      388.810760     1     0     0     0     8
       127.677580      218.455117      177.511982     1     0     0     0     1
       474.037232       97.585542      161.364245     1     0     0     0     3
       387.039295      358.861110      485.596715     1     0     0     0     2
       386.777030      423.739186      159.533714     1     0     0     0     1
       467.116206      131.511424      176.073995     1     0     0     0     6
       487.971147      390.297045      402.235268     1     0     0     0     7
       182.924590      363.768540      387.950253     1     0     0     0     4
       123.587715      369.827659      223.450451     1     0     0     0     8
       210.658685      473.718865      147.373692     1     0     0     0     8
       390.382356      313.424845      300.271117     1     0     0     0     8
       265.543469      387.658645       52.941441     1     0     0     0     7
       347.757056      301.044650      384.317492     1     0     0     0     8
       301.054992      308.469539      374.871395     1     0     0     0     2
       460.723956      475.509095      461.600374     1     0     0     0     8
       102.932653       18.854436      103.794659     1     0     0     0     1
       196.735346      177.170908      429.900765     1     0     0     0     4
       218.920757      301.064977      158.852019     1     0     0     0     1
       351.625719      317.542170      303.648929     1     0     0     0     2
       497.728821      292.488097      346.015580     1     0     0     0     4
        69.781739      338.941968       13.162417     1     0     0     0     4
       330.882806      253.835001      331.213103     1     0     0     0     7
       110.971259      146.331832      178.927832     1     0     0     0     3
       442.886251      480.533064      282.153440     1     0     0     0     7
       285.814900       55.139729      307.718692     1     0     0     0     1
         7.124058      478.561178      378.268744     1     0     0     0     3
       432.201620       56.072413      190.467712     1     0     0     0     8
       175.989092      454.596740      479.658299     1     0     0     0     3
       237.460850      436.619818       62.916438     1     0     0     0     4
       408.178960      475.168575      203.796888     1     0     0     0     4
        40.453077      491.282575       26.216383     1     0     0     0     4
       443.080650      148.507273      111.319648     1     0     0     0     3
       101.441956      152.284986      281.363693     1     0     0     0     8
       418.662287      111.338884      320.257516     1     0     0     0     7
       405.471302      367.033181       62.069879     1     0     0     0     7
       393.960665      215.657256       59.168382     1     0     0     0     7
       203.710558      484.985475       57.947151     1     0     0     0     2
       299.382040      133.557834      262.301144     1     0     0     0     4
       100.365213       68.924002      353.378733     1     0     0     0     6
       209.877057      193.205056      451.181053     1     0     0     0     7
       428.258762      167.984357       72.837717     1     0     0     0     8
       170.144775      137.469364      388.952914     1     0     0     0     4
        96.958895      341.131892      330.781638     1     0     0     0     8
        89.472490       51.401646      450.393813     1     0     0     0     6
       483.084348      119.934682       95.941976     1     0     0     0     3
       162.538744      439.356745      349.869336     1     0     0     0     5
        39.191615       83.669389      167.209799     1     0     0     0     2
       410.991898      317.826660      131.786690     1     0     0     0     5
       155.998730      477.987911      383.980765     1     0     0     0     7
       405.555335      203.418933      425.466644     1     0     0     0     6
       478.686466      474.432929      482.690812     1     0     0     0     4
        50.488879      272.005337      371.974717     1     0     0     0     1
       380.260513      118.892636      141.621164     1     0     0     0     8
       263.935122      284.770336      384.594369     1     0     0     0     2
       347.458909      384.878710      115.697047     1     0     0     0     3
         6.499679      338.940473      227.045391     1     0     0     0     2
       332.219619      347.394381      468.910437     1     0     0     0     3
       333.398928      251.406336       21.713248     1     0     0     0     5
       458.207016      194.628123      364.925844     1     0     0     0     1
       245.081003      484.196332      201.918441     1     0     0     0     5
       165.440384      230.497641      451.052111     1     0     0     0     1
       394.556122      223.399728      312.630375     1     0     0     0     8
       480.817065      472.296460      368.779112     1     0     0     0     1
       104.489396      102.716363      399.118414     1     0     0     0     1
       350.372682      410.674443      477.252268     1     0     0     0     2
        20.206417       82.277348       41.968295     1     0     0     0     2
       342.106921      304.502471       74.848863     1     0     0     0     4
       268.542489      308.974768      167.952737     1     0     0     0     8
       467.868145        3.816093      141.829305     1     0     0     0     1
       454.152569      398.429688      180.573046     1     0     0     0     3
       377.047830       78.940973      273.600070     1     0     0     0     1
       497.972397       74.104549       67.697663     1     0     0     0     8
       463.982396      433.865277      199.072413     1     0     0     0     4
       373.631467      465.095244      428.520184     1     0     0     0     6
       124.742665      153.911603      113.346618     1     0     0     0     3
       268.630410        5.396660       94.340204     1     0     0     0     7
       298.797039      387.745225       52.221754     1     0     0     0     5
       189.901213      302.073722      414.095826     1     0     0     0     8
       248.883883      285.084969      293.005309     1     0     0     0     6
       441.869680      380.438551       12.535069     1     0     0     0     5
       349.832896      398.426743      215.992327     1     0     0     0     6
       143.361324      360.468416      352.019153     1     0     0     0     3
       215.063807      420.386441        7.049161     1     0     0     0     5
        40.687215      394.827534      335.052466     1     0     0     0     5
       273.536257      473.647277      269.968446     1     0     0     0     4
       259.523837      284.358681      394.147652     1     0     0     0     1
       271.859956      312.575160      329.246050     1     0     0     0     7
       333.657257      454.436515      255.141919     1     0     0     0     2
       279.820095      105.773645      423.609002     1     0     0     0     5
       265.785741      165.527354      156.907785     1     0     0     0     3
         7.098481       22.425210      226.543131     1     0     0     0     8
       370.918407      450.025524       66.665695     1     0     0     0     4
       417.299861      238.744008      341.124801     1     0     0     0     7
        82.930417       83.903208      303.616894     1     0     0     0     1
         1.755122      491.877507      377.548623     1     0     0     0     3
       409.701434      198.440396      346.966923     1     0     0     0     1
        25.282691      485.679767      371.210883     1     0     0     0     2
       325.495185      400.913194      287.012703     1     0     0     0     5
       173.904943      470.595618      221.656797     1     0     0     0     2
        71.263648      397.425731      150.012147     1     0     0     0     2
        77.372320      452.627845      170.347861     1     0     0     0     5
       428.064965      421.553312      380.279798     1     0     0     0     8
       418.280279      304.555324       16.175377     1     0     0     0     8
       149.867245      430.461551      471.552506     1     0     0     0     5
        94.140227      312.997282      223.387047     1     0     0     0     8
       192.443045      492.174561      365.395444     1     0     0     0     2
       211.348540      481.035478      215.839212     1     0     0     0     4
        30.680924      394.042218       65.561404     1     0     0     0     3
       268.207112       80.577400      260.996909     1     0     0     0     1
       346.155880       89.374526      261.320832     3     0     0     0     6
        50.059331      474.862820      275.551028     1     0     0     0     7
        21.150941      269.655405       65.615395     1     0     0     0     1
       334.703039      207.150939      199.425057     1     0     0     0     3
        97.623606      480.343337      213.884561     1     0     0     0     3
       114.530846      128.267279      253.446494     1     0     0     0     1
       270.224823       36.008572      158.368287     1     0     0     0     1
       172.054194       58.706674      237.269395     1     0     0     0     5
       203.189273      315.031156      142.882838     1     0     0     0     7
       326.773662       48.954881      447.145728     1     0     0     0     7
        66.068512       68.124979      121.479613     1     0     0     0     2
       172.967605      473.284538      305.390716     1     0     0     0     7
       197.270823      338.304211        9.101844     1     0     0     0     8
        70.846381      383.160542      458.354527     1     0     0     0     6
       495.880623       72.375539      284.316617     1     0     0     0     3
       296.051286      168.270042      348.696062     1     0     0     0     3
       461.268473      328.856223      243.184852     1     0     0     0     7
       136.942141      121.045793      443.352882     1     0     0     0     6
       441.693985      288.341849      112.274063     1     0     0     0     7
       198.157951      438.352758      302.257409     1     0     0     0     8
       118.208951      329.694118      287.400471     1     0     0     0     8
       447.249540      445.008890       18.980935     1     0     0     0     6
       299.996399      364.798098      403.994255     1     0     0     0     1
       185.144796       47.263084      410.287561     1     0     0     0     2
         2.516033      138.085421      133.912052     1     0     0     0     7
        54.453440      213.719120      173.174742     1     0     0     0     1
       384.304566      111.838114      305.823887     1     0     0     0     4
       363.514904        8.391871      151.817681     1     0     0     0     6
       374.830129      285.030036      355.202873     1     0     0     0     4
       437.067413      388.280168      455.072272     1     0     0     0     6
       185.110680      113.539882      203.072230     1     0     0     0     4
       204.921625      471.323510       36.347985     1     0     0     0     4
       254.109322      274.368540      255.215471     1     0     0     0     1
       248.083915       15.008873      213.037608     1     0     0     0     4
       363.214707      343.986526      413.167916     1     0     0     0     2
       162.843765      340.117948      147.595394     1     0     0     0     5
       475.288494      356.963549      225.102297     1     0     0     0     1
       125.190312      347.188788      297.793367     1     0     0     0     3
        84.742155      151.495031      491.503896     1     0     0     0     5
       424.493236       43.177561      266.452580     1     0     0     0     8
       488.448404       18.079124      400.617772     1     0     0     0     8
       474.223484      170.308261       10.126514     1     0     0     0     1
       411.547925      278.258720      392.722364     1     0     0     0     4
        13.710129      152.243193      229.302163     1     0     0     0     7
       141.887013      331.891278      443.503275     1     0     0     0     1
       445.371599      392.919934      348.013870     1     0     0     0     7
       436.001036      472.388344      394.490096     1     0     0     0     4
       126.262351      290.008776      405.084773     1     0     0     0     2
       285.907644       19.833872      490.338666     1     0     0     0     6
        54.207771      252.316897      207.559106     1     0     0     0     4
       311.285656      363.721980      459.364823     1     0     0     0     6
       209.914574      237.230181      293.759810     1     0     0     0     8
       139.795529      400.574195      266.715812     1     0     0     0     5
       256.857055      137.195295       78.874584     1     0     0     0     2
         7.320431        3.398225      297.471436     1     0     0     0     1
       438.361926      255.852966       56.727393     1     0     0     0     4
       305.533749        8.061791      430.488700     1     0     0     0     2
       465.940549      115.564796      250.374346     1     0     0     0     4
       474.794923      166.323409      325.823758     1     0     0     0     6
       108.268535      222.355845      391.207390     1     0     0     0     4
       375.542868      261.371925      346.468956     1     0     0     0     3
       276.221159      239.021460      262.379684     1     0     0     0     8
       133.994690      216.070971      203.231994     1     0     0     0     5
       130.819338      142.618578       52.916835     1     0     0     0     5
       333.158270      498.670211      433.800916     1     0     0     0     2
        83.881993      131.727278        2.281533     1     0     0     0     4
        53.123504      111.430189      301.584273     1     0     0     0     3
       311.829155      131.566301      432.916340     1     0     0     0     3
       315.714584      246.426490      437.393674     1     0     0     0     3
       158.938828      183.458529      450.389175     1     0     0     0     5
       116.195042      322.738134        6.996247     1     0     0     0     2
       238.256914      402.639866      363.516518     1     0     0     0     1
       191.701647      176.007212      449.191379     1     0     0     0     8
       255.099378      260.053783       42.795551     1     0     0     0     8
       443.276190      122.491133      335.280688     1     0     0     0     2
       392.622297      316.731562      387.189958     1     0     0     0     4
       331.468457      238.917806      224.530444     1     0     0     0     2
       423.119325       20.538224      275.170995     1     0     0     0     3
        40.080178      424.738450       50.117651     1     0     0     0     5
       331.966025       91.787926      135.531424     1     0     0     0     1
       476.138433       59.385840        2.007626     1     0     0     0     7
       134.302863      170.045727      294.319589     1     0     0     0     2
       161.694872      452.618180      374.188120     1     0     0     0     5
       459.295358       33.240324      161.953943     1     0     0     0     2
       440.547315       11.419579       84.036230     1     0     0     0     4
       202.660638      226.962969      233.062178     1     0     0     0     8
       106.231926      101.111891      259.357678     1     0     0     0     7
       311.298657      143.658684      121.330899     1     0     0     0     2
       340.458963      274.168508       13.641870     1     0     0     0     7
       222.032912       96.801691      361.377912     1     0     0     0     3
       403.531715      142.367855      211.043633     1     0     0     0     6
         7.894717      374.818183       99.364017     1     0     0     0     3
       396.692645      207.726161       47.100584     1     0     0     0     1
        68.159710      489.842742      477.895327     1     0     0     0     1
       426.845914      348.103982       60.220134     1     0     0     0     6
       223.604415      467.765230      116.563004     1     0     0     0     4
       229.747429       38.925615      368.963483     1     0     0     0     8
       242.033364      343.437396      120.364077     1     0     0     0     8
       321.812995      171.152506      100.832996     1     0     0     0     5
       213.806057      107.724185      495.111628     1     0     0     0     6
        98.969412      486.166978      363.881165     1     0     0     0     5
        58.470865       94.718265      236.548787     1     0     0     0     1
       453.780151      301.694734      189.259162     1     0     0     0     3
       463.827274       66.834219      309.953530     1     0     0     0     8
       478.714480      249.795646      179.378127     1     0     0     0     4
       451.131289      404.029379      319.381715     1     0     0     0     8
       220.329445      488.328015      169.638447     1     0     0     0     7
       101.796469      426.222828      382.308182     1     0     0     0     6
       265.777328      281.756231       37.785902     1     0     0     0     6
       361.927346      180.331513      475.254289     1     0     0     0     7
       318.864089      443.826628      383.746679     1     0     0     0     3
       344.769791      362.682955       83.851353     1     0     0     0     1
       160.643863      261.494222       11.601035     1     0     0     0     3
        74.456966      352.478058      406.525238     1     0     0     0     8
       316.664878      103.879988       30.078808     1     0     0     0     3
        81.368342      146.718544      498.161887     1     0     0     0     6
       339.772064      106.568309      467.259105     1     0     0     0     7
       387.674773      227.932796      337.318054     1     0     0     0     4
         1.559564      112.506806       19.390684     1     0     0     0     6
        24.958860      411.959672      362.850268     1     0     0     0     3
       491.471945      249.486851      438.016779     1     0     0     0     3
       407.399303      215.021670      280.348021     1     0     0     0     6
       485.351881      121.246087      492.775735     1     0     0     0     2
       292.886721      162.822330      222.572828     1     0     0     0     8
       214.798088      209.313729      107.678917     1     0     0     0     5
       491.301046      423.696996      362.423927     1     0     0     0     6
       213.340400      263.558779       45.915598     1     0     0     0     1
       454.597667      101.482224      492.014520     1     0     0     0     7
        97.723280      174.571122      162.877384     1     0     0     0     7
       250.701166      499.389198       95.607489     1     0     0     0     6
       469.774347      250.442531      380.151168     1     0     0     0     6
        19.907260      273.678164      405.957052     1     0     0     0     7
       281.711567      385.358418      394.008713     1     0     0     0     1
       418.811727      375.056872      180.828411     1     0     0     0     7
       255.082712      151.267153       28.757178     1     0     0     0     5
       418.162056        8.901028      345.280804     1     0     0     0     6
       256.963965        4.693712      433.388645     1     0     0     0     4
       148.468530       18.030259      478.469413     1     0     0     0     2
       394.284315       57.347491      180.786896     1     0     0     0     1
        66.023015        1.661801       45.188217     1     0     0     0     1
       113.729427      230.305481      432.843089     1     0     0     0     8
       415.922809      177.513843       22.582082     1     0     0     0     8
       263.280140      166.361062      431.841082     1     0     0     0     8
       354.592989      291.666307      369.766851     1     0     0     0     5
       104.828352      268.424369      181.979469     1     0     0     0     4
       426.828840      190.151770       61.078445     1     0     0     0     6
        40.223243      249.456442      347.217422     1     0     0     0     7
       282.346832      295.445775       11.645568     1     0     0     0     8
       344.651725       83.178236      102.374537     1     0     0     0     1
        78.621092      402.471304      392.822363     1     0     0     0     6
       378.175682      179.162471       63.425735     1     0     0     0     3
       442.007357      112.973835      175.218025     1     0     0     0     3
       445.827912      467.662369       79.373577     1     0     0     0     5
       290.641533      485.656433      162.830731     1     0     0     0     7
       234.612084      250.588510      396.674785     1     0     0     0     2
       370.684206      322.605178       95.468375     1     0     0     0     7
       460.954338      339.641448      181.228931     1     0     0     0     3
       263.377092      448.921657      309.237591     1     0     0     0     4
       267.260056       90.687517      278.855262     1     0     0     0     2
        90.679642       88.314504      206.940669     1     0     0     0     2
       416.336991      391.801317      105.505858     1     0     0     0     4
       311.185474      186.233203      214.718314     1     0     0     0     5
        90.165964      320.680416      129.967752     1     0     0     0     2
       423.720559      293.775739      150.815852     1     0     0     0     4
       209.080291      155.719876       49.743321     1     0     0     0     1
        58.893529        6.403799      137.146504     1     0     0     0     6
       127.142460      403.493858      259.088525     1     0     0     0     7
       293.026899      226.707295      123.320475     1     0     0     0     7
       165.131567      124.700267      108.086345     1     0     0     0     7
       211.111958       69.495513      397.333460     1     0     0     0     3
         9.297572      464.137863      408.873521     1     0     0     0     4
        16.114251      125.654443      140.863439     1     0     0     0     1
       464.733945      293.933620      255.453474     1     0     0     0     4
       375.080905      378.979509      396.821796     1     0     0     0     1
       117.289440      179.184132       94.460018     1     0     0     0     8
       243.661990      376.610627      422.552405     1     0     0     0     4
        45.242885      165.722922      429.432197     1     0     0     0     6
       363.465680      101.951517      261.805888     1     0     0     0     4
       376.971886      266.593652       25.226442     1     0     0     0     8
       406.741308      433.290457      310.947910     1     0     0     0     3