ITEM: TIMESTEP
0
ITEM: NUMBER OF ATOMS
        7882
ITEM: BOX BOUNDS pp pp pp
  0.0000000E+00   500.000000000000     
  0.0000000E+00   500.000000000000     
  0.0000000E+00   500.000000000000     
ITEM: ATOMS x y z f1 f2 f3 f4 orient radius
        75.962232      169.926956       59.940062     1     0     0     0     2   1.560
       442.042998      374.710776      344.649561     1     0     0     0     3   1.560
       435.765808      464.636730      357.745904     1     0     0     0     3   1.560
         6.527021      332.934321      303.173405     1     0     0     0     8   1.560
       459.382291      181.364540      295.572474     1     0     0     0     2   1.560
       298.608884       63.780548      216.805005     1     0     0     0     2   1.560
       450.929170       60.429481      318.267777     1     0     0     0     5   1.560
       415.787731      441.998675      498.717652     1     0     0     0     4   1.560
       113.558738      269.305219        6.008236     1     0     0     0     6   1.560
       375.149561      270.449652      245.638522     1     0     0     0     5   1.560
       379.964208      418.998341      216.436678     1     0     0     0     4   1.560
        29.146777      359.464587      488.177001     1     0     0     0     5   1.560
       449.621954      453.948080      430.746127     1     0     0     0     3   1.560
       269.225995       77.541811      239.882079     1     0     0     0     3   1.560
        48.156290      289.068591       68.016602     1     0     0     0     5   1.560
       293.952688      329.492407        3.832293     1     0     0     0     4   1.560
       392.398496      227.387332      222.198417     1     0     0     0     2   1.560
        91.590510      487.876986       43.158413     1     0     0     0     4   1.560
       114.466056      236.545140      261.437892     1     0     0     0     6   1.560
        47.604669       73.916548       36.328649     1     0     0     0     4   1.560
       371.770266      391.927232      319.143544     1     0     0     0     4   1.560
        63.990760       98.445620       50.559866     1     0     0     0     2   1.560
        11.348041      473.734589      202.723477     1     0     0     0     4   1.560
        26.549838      115.854347      483.243162     1     0     0     0     8   1.560
       188.439417      149.079306      166.896404     1     0     0     0     6   1.560
       376.858607      284.842985      386.736928     1     0     0     0     4   1.560
       282.267820      237.023345      250.682360     1     0     0     0     8   1.560
       364.027634       34.279158      156.183696     1     0     0     0     5   1.560
       287.944670      138.055579      369.540670     1     0     0     0     4   1.560
        49.817093      405.150371       59.741913     1     0     0     0     8   1.560
       470.467033       35.611247      306.315063     1     0     0     0     5   1.560
       415.494144      295.914136       40.182957     1     0     0     0     6   1.560
       472.770000      188.642095      225.286360     1     0     0     0     3   1.560
       363.883367      487.449822      444.052249     1     0     0     0     8   1.560
        47.270907      493.430554      367.551885     1     0     0     0     8   1.560
       300.208011      362.480624      416.762068     1     0     0     0     2   1.560
       194.833004      157.636565      290.520114     1     0     0     0     6   1.560
       120.865191        9.947457      312.613139     1     0     0     0     7   1.560
       271.106455      452.895629      260.941048     1     0     0     0     2   1.560
       181.657543      113.189651      354.184358     1     0     0     0     3   1.560
       361.067465       52.078168      112.534641     1     0     0     0     8   1.560
       188.825617      247.806181      356.064126     1     0     0     0     6   1.560
       431.009284      419.977405      243.541900     1     0     0     0     6   1.560
       129.134062      416.412831       55.254989     1     0     0     0     3   1.560
       183.743598      462.371529      180.585867     1     0     0     0     8   1.560
       357.852397      322.496456      373.334620     1     0     0     0     1   1.560
       226.874860      237.348446      289.484537     1     0     0     0     7   1.560
       381.882589      225.245019      348.431978     1     0     0     0     8   1.560
       242.687527      111.999759      154.026563     1     0     0     0     1   1.560
        85.605897      434.340063      442.890841     1     0     0     0     4   1.560
       306.629184      155.277322       81.164214     1     0     0     0     4   1.560
       155.908227      443.042733      169.988345     1     0     0     0     1   1.560
       287.908172      495.122521      380.039389     1     0     0     0     4   1.560
       348.575638       94.166138      243.390929     1     0     0     0     1   1.560
       119.205452        0.685571      232.030372     1     0     0     0     3   1.560
       388.057824      415.056758      300.562339     1     0     0     0     4   1.560
       406.593652      456.234926      414.591814     1     0     0     0     6   1.560
       492.998638       29.692046      406.719211     1     0     0     0     5   1.560
       252.017102      195.655655      494.508154     1     0     0     0     2   1.560
       342.512670      401.116289      221.771563     1     0     0     0     6   1.560
       499.623552      448.165789      157.838269     1     0     0     0     1   1.560
       410.838427      485.464434      402.805113     1     0     0     0     4   1.560
       370.738977      445.239924      126.353188     1     0     0     0     5   1.560
       254.540265      422.226926       96.567465     1     0     0     0     7   1.560
       248.110745      168.813242      315.791935     1     0     0     0     1   1.560
       255.836271      438.717735      462.648796     1     0     0     0     6   1.560
       135.118034      125.312109      138.522728     1     0     0     0     8   1.560
       328.594072      252.881660       22.138033     1     0     0     0     4   1.560
       445.459079       81.609553       22.160954     1     0     0     0     1   1.560
       313.029711      163.452600      236.113090     1     0     0     0     6   1.560
       417.031653      258.970449      172.011712     1     0     0     0     2   1.560
       236.738336      321.583162      439.997122     1     0     0     0     1   1.560
       181.245371      224.675139      357.263907     1     0     0     0     4   1.560
       426.788676      212.886534       25.680495     1     0     0     0     8   1.560
        30.804854      194.179806      455.797181     1     0     0     0     2   1.560
        95.112822      127.980253      120.823434     1     0     0     0     3   1.560
       316.696589      396.413859       44.695942     1     0     0     0     3   1.560
       419.083600      123.235890       36.884877     1     0     0     0     4   1.560
       153.274869       31.491894       61.831526     1     0     0     0     4   1.560
       271.559576       98.639499      163.890728     1     0     0     0     8   1.560
        69.591461      307.095879       63.720901     1     0     0     0     1   1.560
       421.050989      405.373443       55.675237     1     0     0     0     7   1.560
       149.330261      186.368571      281.771211     1     0     0     0     1   1.560
       335.044387      331.836446      191.607150     1     0     0     0     3   1.560
       270.233617       83.068252      483.941650     1     0     0     0     6   1.560
       428.565911      287.752419       24.947392     1     0     0     0     1   1.560
       307.489310      445.172956      177.296569     1     0     0     0     7   1.560
       268.930394       84.864693      108.849650     1     0     0     0     8   1.560
       193.296565      182.484734      295.952821     1     0     0     0     5   1.560
       151.721229      192.407842      256.738694     1     0     0     0     4   1.560
       373.156268      140.690790      308.363162     1     0     0     0     8   1.560
       425.579477      104.410449       41.570181     1     0     0     0     8   1.560
       157.047970      385.417148      116.106134     1     0     0     0     4   1.560
       456.559271      163.059563      237.362644     1     0     0     0     1   1.560
       311.117942       10.957904      448.879282     1     0     0     0     6   1.560
        51.039631      299.691257      235.993738     1     0     0     0     1   1.560
       480.310715      399.839168      285.750650     1     0     0     0     8   1.560
       494.730251      379.782654      113.586990     1     0     0     0     6   1.560
       421.013265       10.535838       24.177486     1     0     0     0     3   1.560
       364.397761      367.553569       55.160789     1     0     0     0     3   1.560
       403.040268      479.599503        6.913663     1     0     0     0     7   1.560
        75.721493      164.843942      253.384421     1     0     0     0     2   1.560
       123.727400      499.602790      336.518109     1     0     0     0     1   1.560
        69.634689      454.845218      265.821458     1     0     0     0     1   1.560
        54.544497      404.593420      240.097610     1     0     0     0     2   1.560
       318.070619      173.607440      431.633726     1     0     0     0     2   1.560
       248.998436      204.393002      313.735506     1     0     0     0     4   1.560
       155.919823      106.819314       41.369087     1     0     0     0     7   1.560
       487.169262        7.352413      430.756823     1     0     0     0     8   1.560
       335.305100      485.829187      128.300133     1     0     0     0     4   1.560
       185.342450      366.979710      222.135043     1     0     0     0     3   1.560
       377.315356       71.679246      481.157097     1     0     0     0     6   1.560
       262.776792       16.576776      392.333662     1     0     0     0     2   1.560
       104.030833      161.685347      499.769914     1     0     0     0     7   1.560
        94.380325      224.412921      376.954202     1     0     0     0     7   1.560
       200.181871      461.142461      424.162287     1     0     0     0     8   1.560
       137.493833      490.550985      121.307488     1     0     0     0     7   1.560
       339.741943      272.472571      310.668902     1     0     0     0     2   1.560
       466.770093      112.093197       40.579767     1     0     0     0     2   1.560
       222.254576        8.480412       37.201460     1     0     0     0     6   1.560
        15.209095       60.912634      267.146613     1     0     0     0     3   1.560
       396.521367      307.835822      321.264589     1     0     0     0     4   1.560
        86.199962       57.553396       11.782353     1     0     0     0     1   1.560
        94.219136      252.899768       25.222397     1     0     0     0     3   1.560
       477.552956       39.552687      274.351302     1     0     0     0     4   1.560
       170.095698      439.261624      439.526598     1     0     0     0     6   1.560
        99.851456      352.184145      111.635060     1     0     0     0     3   1.560
       270.527950       41.680299      174.773196     1     0     0     0     6   1.560
       429.819742      427.542745      320.702846     1     0     0     0     4   1.560
       154.022392      451.646149      412.238059     1     0     0     0     4   1.560
       193.812735      312.688809      496.323508     1     0     0     0     8   1.560
       289.931759      180.553281       34.103250     1     0     0     0     3   1.560
       279.150169      403.524991      142.549377     1     0     0     0     1   1.560
       111.806824      155.599258       21.893458     1     0     0     0     8   1.560
       486.466208      436.370289      388.998778     1     0     0     0     5   1.560
       235.501328      221.659408      401.570580     1     0     0     0     7   1.560
       229.786884      400.128184      143.414176     1     0     0     0     5   1.560
       142.897704       72.810008      498.637922     1     0     0     0     3   1.560
       207.541675      310.432523      189.532092     1     0     0     0     4   1.560
       344.254161       70.794497      424.709102     1     0     0     0     5   1.560
       276.425033      151.438493      255.008502     1     0     0     0     4   1.560
       435.521731      115.938036      156.589730     1     0     0     0     4   1.560
       378.995207      253.870672      127.381754     1     0     0     0     6   1.560
       323.470912      487.644000      229.005963     1     0     0     0     2   1.560
       121.271730      198.158135      471.942881     1     0     0     0     3   1.560
       478.718385      296.322466      439.055327     1     0     0     0     4   1.560
       206.499667      435.365578      322.244930     1     0     0     0     5   1.560
       203.942075      283.485937      309.830647     1     0     0     0     3   1.560
       258.630763       53.881515      363.362007     1     0     0     0     8   1.560
       407.968979      235.032144      462.457742     1     0     0     0     2   1.560
       249.803281      445.856743      496.986392     1     0     0     0     5   1.560
       204.930295      475.640845      367.936571     1     0     0     0     5   1.560
       269.245093      183.931223       59.404288     1     0     0     0     5   1.560
       150.186823      436.477897       79.664357     1     0     0     0     1   1.560
        89.820354      101.796771      470.991228     1     0     0     0     7   1.560
       426.816470      123.049065      349.445580     1     0     0     0     5   1.560
        35.185312      233.491363      380.516991     1     0     0     0     1   1.560
       286.576021      377.961226       64.856011     1     0     0     0     7   1.560
       239.579043       44.027618      373.478189     1     0     0     0     7   1.560
       482.720552       76.451739      278.230667     1     0     0     0     5   1.560
       399.083843      186.167059       28.078152     1     0     0     0     6   1.560
       331.751099      480.376219      327.395428     1     0     0     0     3   1.560
       306.857103      163.640777      242.804057     1     0     0     0     3   1.560
       372.514980      322.893290      147.123500     1     0     0     0     2   1.560
       146.989108      176.092601       84.675400     1     0     0     0     4   1.560
       332.978654      338.354932      421.829445     1     0     0     0     7   1.560
       361.217032      404.814611      484.097630     1     0     0     0     1   1.560
       271.379354       17.015534      107.384228     1     0     0     0     8   1.560
       210.117175      172.748171       61.486221     1     0     0     0     5   1.560
        11.988676      176.065603      385.528524     1     0     0     0     1   1.560
        35.364293       89.083431       42.999387     1     0     0     0     6   1.560
       282.378310      140.287426      431.894090     1     0     0     0     2   1.560
       453.544348      461.980011      233.934895     1     0     0     0     7   1.560
       464.194571      259.068370       69.725629     1     0     0     0     3   1.560
       266.192220      462.513777      448.052450     1     0     0     0     5   1.560
         1.708626      100.947940       92.236612     1     0     0     0     4   1.560
       132.749012      172.264023      120.425964     1     0     0     0     5   1.560
       313.194289      392.555904      452.850332     1     0     0     0     4   1.560
       133.151190      313.808731      348.969138     1     0     0     0     6   1.560
       410.956330       30.088697      353.315486     1     0     0     0     3   1.560
       318.286778      293.623895      239.144657     1     0     0     0     7   1.560
       265.857797      365.764606      310.935789     1     0     0     0     5   1.560
       375.197198      170.948610       70.919775     1     0     0     0     5   1.560
       213.841982      453.468885      176.575911     1     0     0     0     7   1.560
       169.601827      257.729800      172.434471     1     0     0     0     4   1.560
        48.565531        6.182816       62.764945     1     0     0     0     2   1.560
       100.914003      141.586917      124.696673     1     0     0     0     7   1.560
       377.063190       16.013405       37.234757     1     0     0     0     1   1.560
       183.424881      315.791600      250.861709     1     0     0     0     6   1.560
       159.586913      435.285256      370.209114     1     0     0     0     7   1.560
       126.726407      211.473577      110.525406     1     0     0     0     5   1.560
       436.378940      455.222196      448.167341     1     0     0     0     5   1.560
       256.082194      319.690544      361.799109     1     0     0     0     4   1.560
        80.134190       69.870676      439.690416     1     0     0     0     8   1.560
       242.866770      330.406124      265.269700     1     0     0     0     4   1.560
       418.012400      254.272946      441.995298     1     0     0     0     1   1.560
       195.635294      120.629541      126.047585     1     0     0     0     7   1.560
       144.733405      133.661983      136.930113     1     0     0     0     1   1.560
       338.905410      217.866925      188.808736     1     0     0     0     3   1.560
        57.969940      418.105042      370.515337     1     0     0     0     5   1.560
       119.789459      331.282061       79.874181     1     0     0     0     2   1.560
       453.788925      437.715718      320.123557     1     0     0     0     1   1.560
       394.531492      362.227554       18.354322     1     0     0     0     2   1.560
       103.817205       12.179901      488.028233     1     0     0     0     8   1.560
       471.218888      246.474266       28.865999     1     0     0     0     3   1.560
       275.826138      440.003072      105.672225     1     0     0     0     7   1.560
       490.054121      228.138394      135.812195     1     0     0     0     8   1.560
       342.414743      355.669532      451.879799     1     0     0     0     7   1.560
       160.724261      205.634979       14.853947     1     0     0     0     8   1.560
       221.002193      370.059481      447.797216     1     0     0     0     5   1.560
        48.658719       51.629322      467.309105     1     0     0     0     4   1.560
       212.157829      302.749394       95.997841     1     0     0     0     2   1.560
       244.003630      492.270470      433.652061     1     0     0     0     2   1.560
       129.598305      154.237350      289.165734     1     0     0     0     8   1.560
       486.616747       92.035551       83.443899     1     0     0     0     6   1.560
       334.069610      301.227039      197.250692     1     0     0     0     4   1.560
       363.218156      276.022993      420.789916     1     0     0     0     1   1.560
       224.296799      473.017507      389.142502     1     0     0     0     7   1.560
       303.745589      471.437653      472.082745     1     0     0     0     4   1.560
       486.651755       85.361404       27.347445     1     0     0     0     8   1.560
       115.193718      193.661254      324.769546     1     0     0     0     5   1.560
        77.781684      455.278120      487.580404     1     0     0     0     1   1.560
       439.616643      415.111167      276.449533     1     0     0     0     4   1.560
       406.559865      150.599881      277.471460     1     0     0     0     4   1.560
       186.624678      238.090333      413.316377     1     0     0     0     8   1.560
        66.992151      309.156438      233.714065     1     0     0     0     5   1.560
       340.215496      229.981939      303.719715     1     0     0     0     2   1.560
        23.656542      289.319648      295.750686     1     0     0     0     3   1.560
        94.066472      135.793296      468.898606     1     0     0     0     5   1.560
       327.857924       68.612197      350.702085     1     0     0     0     4   1.560
        58.449065       30.459956      371.039531     1     0     0     0     7   1.560
       348.168247      122.209527      301.832900     1     0     0     0     2   1.560
       144.347898      197.079974       58.457237     1     0     0     0     4   1.560
        85.232547       86.933966      367.922896     1     0     0     0     2   1.560
       267.145496        9.186790      248.542169     1     0     0     0     1   1.560
       459.400569        9.517062      185.921168     1     0     0     0     7   1.560
       450.326378      378.098786      240.419683     1     0     0     0     6   1.560
       250.742960      375.407211      443.638777     1     0     0     0     1   1.560
       407.752259      472.373963      469.348968     1     0     0     0     5   1.560
        58.008395      176.196990      343.439527     1     0     0     0     1   1.560
       422.895599      129.156584      256.040187     1     0     0     0     7   1.560
       369.442471       73.380523      227.679447     1     0     0     0     2   1.560
       112.544327       98.291077      484.251831     1     0     0     0     3   1.560
       436.733988      189.265064       17.593417     1     0     0     0     5   1.560
       308.905696      148.637989      121.244937     1     0     0     0     2   1.560
       117.712543       62.156375      318.068939     1     0     0     0     4   1.560
       120.053522      404.798580      275.959460     1     0     0     0     8   1.560
       179.443608       45.413500      182.193717     1     0     0     0     6   1.560
       450.996373      373.065097      496.360098     1     0     0     0     6   1.560
       357.702457       76.541455      270.414482     1     0     0     0     6   1.560
       343.389530      486.749901       41.590994     1     0     0     0     8   1.560
        85.169138      113.003237      213.197967     1     0     0     0     8   1.560
       444.924398       10.590985      218.895003     1     0     0     0     2   1.560
        85.561188      347.380396      316.424082     1     0     0     0     1   1.560
       257.448593      430.444162      161.420566     1     0     0     0     3   1.560
       273.882126      304.158851       78.884811     1     0     0     0     7   1.560
       426.568254      235.080102      168.474728     1     0     0     0     1   1.560
        25.356131      248.573144      446.648512     1     0     0     0     2   1.560
       256.874040      335.095163       31.867254     1     0     0     0     3   1.560
       213.487488       91.239055      125.027438     1     0     0     0     1   1.560
       293.909001       18.440888      318.329520     1     0     0     0     6   1.560
       340.766639      194.344298      383.286311     1     0     0     0     8   1.560
       206.943499       37.821705       76.241422     1     0     0     0     3   1.560
       352.807662       56.053341       21.029239     1     0     0     0     5   1.560
       395.246143      152.032041      260.177039     1     0     0     0     5   1.560
       121.546649      130.851317      132.128563     1     0     0     0     4   1.560
       100.295240      282.138216      456.841333     1     0     0     0     3   1.560
       216.105303      185.556981       44.541303     1     0     0     0     5   1.560
       237.400001      209.870292       93.725451     1     0     0     0     6   1.560
       136.782325      185.285908      335.543068     1     0     0     0     8   1.560
        82.361899      265.742853       23.277375     1     0     0     0     4   1.560
       456.836974      331.426415      382.909588     1     0     0     0     6   1.560
       241.473253       19.725584      379.918234     1     0     0     0     4   1.560
       200.719380      292.998520        6.392862     1     0     0     0     7   1.560
       313.161905       81.243149      350.144350     1     0     0     0     2   1.560
        58.007946      271.606528        0.141077     1     0     0     0     1   1.560
       448.841720      230.457475      333.365159     1     0     0     0     8   1.560
       246.923703       16.380999      162.731651     1     0     0     0     7   1.560
        50.188602       83.556644      303.720559     1     0     0     0     7   1.560
        88.730699      309.405076      297.433434     1     0     0     0     7   1.560
       212.054771      459.116596       20.077072     1     0     0     0     8   1.560
       129.119574      412.807786       32.441057     1     0     0     0     7   1.560
       307.841957      235.337753      132.104342     1     0     0     0     5   1.560
        39.781328      320.303767      302.217035     1     0     0     0     1   1.560
       219.324876       10.671503      255.445446     1     0     0     0     3   1.560
       147.724071      178.212712      413.896562     1     0     0     0     3   1.560
        56.914722      418.217691      240.470783     1     0     0     0     2   1.560
       456.359976       79.246907      470.509589     1     0     0     0     7   1.560
       103.206393      449.457666      222.046040     1     0     0     0     8   1.560
       148.154570       33.996740      358.150317     1     0     0     0     6   1.560
       105.539869      368.584151      130.658259     1     0     0     0     2   1.560
       370.955559      131.275697      179.595467     1     0     0     0     5   1.560
       292.375300      252.975174      253.752484     1     0     0     0     7   1.560
       125.096516       27.397442      291.041792     1     0     0     0     6   1.560
       174.636968      146.554685      441.454571     1     0     0     0     6   1.560
       333.354683      333.405240       33.089321     1     0     0     0     7   1.560
        29.538033      380.475991      392.806730     1     0     0     0     4   1.560
       221.862937      457.016794      208.110958     1     0     0     0     5   1.560
       486.959549       98.571941      293.642564     1     0     0     0     5   1.560
        35.748182      419.750913      408.781947     1     0     0     0     2   1.560
       461.154964      292.587036      395.472735     1     0     0     0     3   1.560
        43.930872      222.303858      309.550193     1     0     0     0     3   1.560
       372.677851      427.271248      462.901218     1     0     0     0     1   1.560
       437.193146      257.770811      250.350145     1     0     0     0     5   1.560
        38.448531       67.386062      481.148881     1     0     0     0     4   1.560
       285.405333      214.308224        8.721479     1     0     0     0     7   1.560
       107.231402      365.995625      207.732864     1     0     0     0     2   1.560
       294.108823      237.992515       29.109934     1     0     0     0     2   1.560
        94.561735       42.361351      152.542594     1     0     0     0     1   1.560
       260.127641      230.259494      264.540933     1     0     0     0     3   1.560
        16.983045       88.051603      445.940614     1     0     0     0     7   1.560
         0.737984      414.289171      242.363408     1     0     0     0     4   1.560
       130.323073       65.263434       98.658327     1     0     0     0     7   1.560
       388.883166      333.251181      439.568431     1     0     0     0     3   1.560
       470.384021      226.579766      340.742466     1     0     0     0     8   1.560
       286.066830      418.864306      133.347489     1     0     0     0     2   1.560
       263.597728      378.084832      317.794876     1     0     0     0     3   1.560
       352.794578      440.433116      213.461326     1     0     0     0     3   1.560
       444.218320      262.936435      140.305778     1     0     0     0     4   1.560
        60.750778      417.784269      198.283950     1     0     0     0     1   1.560
        79.056238       84.414234      474.870665     1     0     0     0     8   1.560
       318.177340      164.281492      413.096631     1     0     0     0     7   1.560
        67.571198      343.336850      450.254399     1     0     0     0     3   1.560
       148.133290       87.043505       73.648275     1     0     0     0     1   1.560
       441.155259      188.849784      127.416759     1     0     0     0     1   1.560
        12.851327      491.668038      381.024731     1     0     0     0     3   1.560
       411.269237      298.884100      273.296744     1     0     0     0     1   1.560
        16.249106      360.933743      232.665817     1     0     0     0     5   1.560
       350.115813       52.814505      419.008072     1     0     0     0     7   1.560
       181.742794      277.997642      143.232668     1     0     0     0     7   1.560
       147.961824      362.670244      211.987728     1     0     0     0     3   1.560
       174.208593       89.671346      155.960897     1     0     0     0     6   1.560
       338.344877      123.414923      340.174249     1     0     0     0     8   1.560
       230.537685        3.887968      233.264500     1     0     0     0     8   1.560
       465.976967       24.336991      134.121278     1     0     0     0     6   1.560
       384.115283       96.745745      315.224250     1     0     0     0     4   1.560
       461.837739      488.580529      164.005830     1     0     0     0     4   1.560
       125.301870      393.118399      420.670593     1     0     0     0     8   1.560