ITEM: TIMESTEP
0
ITEM: NUMBER OF ATOMS
        7881
ITEM: BOX BOUNDS pp pp pp
  0.0000000E+00   500.000000000000     
  0.0000000E+00   500.000000000000     
  0.0000000E+00   500.000000000000     
ITEM: ATOMS x y z nV nH f3 f4 orient
       137.185933       24.194794      236.365542     1     0     0     0     1
       240.331490      420.316636      240.493410     1     0     0     0     6
       420.636014      378.295837      127.928306     1     0     0     0     5
       210.881946       15.073851      257.878923     1     0     0     0     7
        75.305779       93.492958      202.090323     1     0     0     0     5
       407.241166      405.199392      276.586301     1     0     0     0     8
       348.513029      313.978091      181.868827     1     0     0     0     4
       301.134628       56.125234      456.285179     1     0     0     0     5
       489.508737      333.169631      479.763898     1     0     0     0     3
       103.543921       65.957553       25.510360     1     0     0     0     1
       280.488203      162.559867      266.913608     1     0     0     0     1
        49.903081      375.074656      401.969659     1     0     0     0     2
       201.310116       10.357307      288.938834     1     0     0     0     4
       129.597074      315.591643       69.036152     1     0     0     0     7
       191.045948      202.579122      451.681245     1     0     0     0     4
       343.445076      368.193287       87.162361     1     0     0     0     1
       303.119059      499.383503      380.142108     1     0     0     0     3
        93.361448      370.005045      498.663145     1     0     0     0     5
       293.403583      445.322445      129.378512     1     0     0     0     1
        48.505653       96.569204      439.906476     1     0     0     0     6
        90.842406      485.291224      136.809255     1     0     0     0     5
       225.239924      495.747134        0.076524     1     0     0     0     7
       490.870799      443.890548      173.558536     1     0     0     0     1
       406.960216      330.608032      463.934665     1     0     0     0     2
       323.207398      434.695947      347.798274     1     0     0     0     7
       288.178143       17.829903      429.044536     1     0     0     0     5
       433.582087      292.452231      315.790094     1     0     0     0     1
       169.886660      375.676381      298.900486     1     0     0     0     2
       113.274578      215.736977      389.453671     1     0     0     0     4
       169.992012      228.325446      390.950028     1     0     0     0     5
       290.647497      262.826430      267.919121     1     0     0     0     5
        53.868900      399.794741      391.983008     1     0     0     0     8
       262.697746       79.502878       30.081512     1     0     0     0     1
       481.683325      301.886757      454.050523     1     0     0     0     7
       208.521369      449.039042      111.700593     1     0     0     0     5
       173.655146        5.445005       19.619824     1     0     0     0     5
       318.058575      226.032385       54.716853     1     0     0     0     4
       171.164912        9.877123      191.356964     1     0     0     0     3
       412.150111      173.729570      213.403670     1     0     0     0     5
       342.004220      375.438237      465.914165     1     0     0     0     1
        90.491094      206.017960       12.874858     1     0     0     0     8
       291.048363      255.686385      292.347994     1     0     0     0     2
        41.596928      176.494898      384.218179     1     0     0     0     6
       268.364027       64.226480      170.594624     1     0     0     0     8
       304.135650      463.618765      463.330290     1     0     0     0     1
       431.842968      131.476695      408.645090     1     0     0     0     8
        51.162394      262.071160      426.314737     1     0     0     0     7
       101.927535       97.371736      430.660282     1     0     0     0     3
         3.935178      355.106091      333.769975     1     0     0     0     4
        90.483355       91.451184       44.484000     1     0     0     0     6
       245.008065      121.073451      267.896303     1     0     0     0     2
       447.302942      314.328161      138.000019     1     0     0     0     4
        71.581411       72.530372      454.208935     1     0     0     0     4
       497.621803      177.723335      204.225138     1     0     0     0     8
       439.313341      271.643209      151.325121     1     0     0     0     1
       277.144805      165.049313      329.386773     1     0     0     0     2
        83.294899      156.373920      449.556671     1     0     0     0     6
       113.322893       14.286155      487.824598     1     0     0     0     8
       178.552950      251.367087      231.739050     1     0     0     0     2
       449.983942      250.261660      222.096139     1     0     0     0     7
       355.948744       65.386258       91.527111     1     0     0     0     7
        77.821743        5.581009      347.452883     1     0     0     0     8
       350.209867      153.252763      101.215380     1     0     0     0     6
       430.077362      419.035079       74.234001     1     0     0     0     8
       395.695418      282.443635      235.602695     1     0     0     0     2
       465.873808      406.848460      412.401207     1     0     0     0     4
       278.748585        5.298516       64.881757     1     0     0     0     1
       379.742935      440.111063      437.282058     1     0     0     0     8
       117.412685      410.836175      375.843584     1     0     0     0     7
       255.877201      269.262837      326.339118     1     0     0     0     1
       357.526695      198.298162      404.980356     1     0     0     0     2
       357.109350      167.711653      399.302796     1     0     0     0     5
       306.141171      328.180733      363.169409     1     0     0     0     1
       349.836455      344.119243      334.269165     1     0     0     0     1
       463.254494       63.978075       93.032939     1     0     0     0     6
       330.325314      417.472185      494.959416     1     0     0     0     5
       424.407178      308.131687       41.680872     1     0     0     0     4
       361.371712      460.760949      235.303044     1     0     0     0     4
       373.584420      461.437488      300.477753     1     0     0     0     4
       280.836760      489.162855      395.374953     1     0     0     0     5
       105.022543       43.260518      105.851108     1     0     0     0     8
        64.150457      442.896656      205.787708     1     0     0     0     5
       473.397164      203.182818      439.923147     1     0     0     0     6
       192.879131      231.264037      390.393334     1     0     0     0     1
       127.677580      218.455117      177.511982     1     0     0     0     1
       354.051420      144.092506       37.822171     1     0     0     0     3
       391.787019      363.608835      490.344439     1     0     0     0     1
       386.777030      423.739186      159.533714     1     0     0     0     5
       470.281356      134.676574      179.239145     1     0     0     0     1
       489.553722      391.879620      400.652694     1     0     0     0     8
       181.342015      365.351114      389.532827     1     0     0     0     6
       125.170290      371.410234      225.033026     1     0     0     0     1
       207.493535      470.553715      150.538841     1     0     0     0     7
       390.382356      310.259695      303.436267     1     0     0     0     7
       265.543469      384.493495       56.106590     1     0     0     0     3
       347.757056      301.044650      384.317492     1     0     0     0     8
       305.802717      313.217263      370.123671     1     0     0     0     8
       459.141381      477.091670      463.182949     1     0     0     0     6
       101.350078       17.271862      102.212084     1     0     0     0     2
       195.152772      178.753482      431.483340     1     0     0     0     6
       220.503332      296.317252      157.269444     1     0     0     0     7
       351.625719      317.542170      303.648929     1     0     0     0     1
       496.146246      290.905522      344.433005     1     0     0     0     1
        69.781739      338.941968       13.162417     1     0     0     0     2
       332.465381      255.417576      329.630528     1     0     0     0     8
       109.388684      147.914407      177.345257     1     0     0     0     4
       442.886251      480.533064      282.153440     1     0     0     0     6
       281.067175       56.722304      306.136117     1     0     0     0     7
         7.124058      478.561178      378.268744     1     0     0     0     3
       432.201620       56.072413      193.632861     1     0     0     0     5
       175.989092      454.596740      479.658299     1     0     0     0     3
       234.295700      439.784968       59.751288     1     0     0     0     4
       409.761535      473.586000      205.379463     1     0     0     0     3
        40.453077      491.282575       26.216383     1     0     0     0     4
       443.080650      148.507273      111.319648     1     0     0     0     3
       101.441956      152.284986      281.363693     1     0     0     0     8
       418.662287      108.173734      317.092367     1     0     0     0     5
       408.636452      370.198330       58.904730     1     0     0     0     8
       392.378090      214.074681       60.750956     1     0     0     0     7
       205.293133      483.402900       56.364576     1     0     0     0     5
       300.964614      131.975259      263.883719     1     0     0     0     3
       105.112937       64.176277      358.126458     1     0     0     0     3
       211.459631      194.787631      449.598478     1     0     0     0     3
       426.676188      163.236633       74.420292     1     0     0     0     5
       171.727350      135.886790      390.535489     1     0     0     0     1
        96.958895      337.966742      333.946788     1     0     0     0     3
        86.307340       51.401646      453.558963     1     0     0     0     6
       483.084348      119.934682       95.941976     1     0     0     0     3
       160.956169      434.609020      348.286761     1     0     0     0     2
        40.774190       85.251964      168.792374     1     0     0     0     5
       414.157047      314.661511      128.621541     1     0     0     0     5
       157.581304      485.900785      385.563339     1     0     0     0     4
       405.555335      203.418933      425.466644     1     0     0     0     8
       480.269041      479.180653      487.438537     1     0     0     0     3
        47.323730      275.170487      368.809567     1     0     0     0     4
       380.260513      118.892636      141.621164     1     0     0     0     8
       268.682846      289.518061      389.342094     1     0     0     0     1
       347.458909      384.878710      115.697047     1     0     0     0     2
         6.499679      338.940473      227.045391     1     0     0     0     7
       330.637045      348.976956      467.327862     1     0     0     0     5
       333.398928      254.571485       21.713248     1     0     0     0     6
       459.789591      193.045549      363.343270     1     0     0     0     5
       246.663578      485.778907      203.501016     1     0     0     0     1
       165.440384      230.497641      451.052111     1     0     0     0     1
       397.721272      226.564878      309.465226     1     0     0     0     8
       479.234490      470.713885      367.196537     1     0     0     0     2
       101.324247      102.716363      395.953264     1     0     0     0     4
       350.372682      410.674443      477.252268     1     0     0     0     1
        18.623842       83.859923       43.550870     1     0     0     0     6
       337.359196      309.250196       79.596587     1     0     0     0     6
       271.707639      308.974768      167.952737     1     0     0     0     1
       469.450720        5.398668      143.411880     1     0     0     0     1
       452.569994      400.012263      182.155621     1     0     0     0     6
       373.882680       78.940973      273.600070     1     0     0     0     6
       497.972397       70.939400       70.862812     1     0     0     0     3
       465.564971      438.613001      200.654988     1     0     0     0     4
       372.048892      463.512670      430.102759     1     0     0     0     7
       131.072965      150.746453      113.346618     1     0     0     0     3
       267.047835        6.979235       92.757630     1     0     0     0     4
       298.797039      390.910375       49.056605     1     0     0     0     8
       194.648937      300.491147      409.348101     1     0     0     0     8
       250.466458      286.667543      294.587884     1     0     0     0     1
       445.034829      380.438551       12.535069     1     0     0     0     3
       349.832896      401.591893      212.827178     1     0     0     0     4
       144.943899      362.050991      350.436578     1     0     0     0     8
       218.228956      417.221291        3.884011     1     0     0     0     5
        45.434939      396.410108      336.635040     1     0     0     0     1
       275.118832      475.229852      271.551021     1     0     0     0     1
       257.941262      282.776106      392.565077     1     0     0     0     2
       268.694806      309.410010      329.246050     1     0     0     0     7
       333.657257      454.436515      258.307068     1     0     0     0     2
       282.985244      102.608495      423.609002     1     0     0     0     5
       268.950891      165.527354      160.072935     1     0     0     0     1
         8.681055       24.007785      224.960556     1     0     0     0     8
       372.500982      451.608099       65.083120     1     0     0     0     8
       415.717286      237.161433      342.707376     1     0     0     0     7
        81.347843       85.485782      305.199469     1     0     0     0     6
         3.337697      493.460081      379.131198     1     0     0     0     1
       406.536284      198.440396      346.966923     1     0     0     0     6
        30.030416      487.262342      366.463159     1     0     0     0     5
       320.747461      399.330619      285.430128     1     0     0     0     2
       178.652668      469.013044      223.239372     1     0     0     0     8
        72.846223      395.843156      151.594722     1     0     0     0     3
        74.207170      455.792995      170.347861     1     0     0     0     6
       426.482390      419.970737      381.862373     1     0     0     0     7
       416.697704      302.972749       17.757952     1     0     0     0     7
       153.032394      430.461551      471.552506     1     0     0     0     1
        97.305377      309.832133      226.552196     1     0     0     0     3
       190.860470      493.757136      366.978019     1     0     0     0     1
       214.513689      477.870328      219.004361     1     0     0     0     3
        32.263499      392.459643       67.143979     1     0     0     0     3
       269.789687       82.159975      262.579484     1     0     0     0     1
       346.155880       89.374526      261.320832     3     0     0     0     6
        53.224481      478.027970      275.551028     1     0     0     0     1
        19.568366      268.072830       67.197970     1     0     0     0     7
       333.120464      215.063813      201.007631     1     0     0     0     8
        97.623606      483.508487      217.049711     1     0     0     0     1
       114.530846      131.432429      253.446494     1     0     0     0     6
       273.389972       32.843422      158.368287     1     0     0     0     3
       173.636768       60.289248      238.851970     1     0     0     0     1
       203.189273      315.031156      142.882838     1     0     0     0     7
       328.356237       50.537456      442.398003     1     0     0     0     2
        67.651087       69.707554      123.062188     1     0     0     0     1
       177.715329      474.867113      303.808141     1     0     0     0     8
       197.270823      344.634510        5.936694     1     0     0     0     4
        69.263806      381.577967      456.771952     1     0     0     0     2
       495.880623       72.375539      284.316617     1     0     0     0     3
       297.633860      169.852617      347.113487     1     0     0     0     8
       461.268473      328.856223      243.184852     1     0     0     0     7
       136.942141      121.045793      443.352882     1     0     0     0     6
       441.693985      288.341849      109.108913     1     0     0     0     2
       196.575376      436.770183      303.839984     1     0     0     0     7
       115.043802      326.528969      287.400471     1     0     0     0     1
       445.666965      449.756614       20.563510     1     0     0     0     6
       299.996399      364.798098      403.994255     1     0     0     0     1
       183.562221       48.845659      408.704986     1     0     0     0     4
         2.516033      138.085421      133.912052     1     0     0     0     7
        56.036015      212.136545      171.592167     1     0     0     0     5
       387.469716      111.838114      305.823887     1     0     0     0     8
       363.514904        8.391871      148.652531     1     0     0     0     4
       371.664980      281.864886      352.037724     1     0     0     0     2
       435.484838      393.027892      450.324547     1     0     0     0     8
       186.693255      111.957307      204.654805     1     0     0     0     6
       203.339050      472.906085       34.765410     1     0     0     0     4
       255.691896      275.951115      256.798046     1     0     0     0     1
       249.666490       16.591448      211.455034     1     0     0     0     8
       363.214707      343.986526      413.167916     1     0     0     0     6
       166.008915      340.117948      147.595394     1     0     0     0     1
       476.871069      355.380974      226.684872     1     0     0     0     3
       129.938036      342.441064      299.375942     1     0     0     0     3
        84.742155      148.329881      488.338747     1     0     0     0     2
       427.658386       36.847261      263.287430     1     0     0     0     5
       486.865829       16.496549      402.200347     1     0     0     0     7
       475.806059      168.725686        8.543939     1     0     0     0     5
       413.130500      276.676145      397.470088     1     0     0     0     6
        15.292704      150.660618      234.049887     1     0     0     0     3
       143.469588      330.308703      441.920700     1     0     0     0     6
       439.041300      386.589635      354.344169     1     0     0     0     7
       436.001036      472.388344      394.490096     1     0     0     0     4
       127.844926      291.591351      406.667347     1     0     0     0     1
       281.159919       21.416447      495.086391     1     0     0     0     6
        54.207771      252.316897      207.559106     1     0     0     0     4
       311.285656      363.721980      459.364823     1     0     0     0     6
       206.749424      234.065031      296.924960     1     0     0     0     7
       138.212955      402.156770      268.298387     1     0     0     0     6
       255.274480      135.612720       77.292009     1     0     0     0     2
         7.320431        3.398225      297.471436     1     0     0     0     1
       441.527076      252.687817       59.892543     1     0     0     0     3
       303.951174        9.644366      432.071275     1     0     0     0     6
       221.062664      450.178220      148.071733     1     0     0     0     5
       474.794923      166.323409      325.823758     1     0     0     0     6
       109.851110      220.773270      392.789965     1     0     0     0     3
       373.960293      262.954500      344.886381     1     0     0     0     4
       277.803734      240.604035      263.962259     1     0     0     0     2
       133.994690      212.905821      200.066844     1     0     0     0     5
       130.819338      142.618578       52.916835     1     0     0     0     5
       331.575695      493.922487      432.218341     1     0     0     0     3
        85.464568      130.144703        0.698958     1     0     0     0     5
        48.375779      109.847614      300.001698     1     0     0     0     2
       313.411730      129.983726      434.498914     1     0     0     0     3
       314.132009      248.009065      435.811100     1     0     0     0     6
       160.521403      185.041103      451.971750     1     0     0     0     1
       116.195042      322.738134        6.996247     1     0     0     0     2
       238.256914      402.639866      363.516518     1     0     0     0     1
       193.284221      177.589787      447.608804     1     0     0     0     8
       255.099378      260.053783       42.795551     1     0     0     0     8
       440.111041      122.491133      335.280688     1     0     0     0     6
       391.039722      315.148987      388.772533     1     0     0     0     8
       333.051032      237.335231      226.113019     1     0     0     0     3
       423.119325       20.538224      275.170995     1     0     0     0     3
        40.080178      424.738450       50.117651     1     0     0     0     6
       330.383450       90.205351      133.948849     1     0     0     0     2
       474.555859       57.803265        3.590200     1     0     0     0     7
       137.468013      170.045727      297.484738     1     0     0     0     3
       160.112297      454.200754      375.770695     1     0     0     0     6
       456.130208       30.075174      158.788793     1     0     0     0     2
       438.964740       13.002154       82.453656     1     0     0     0     4
       197.912914      225.380394      234.644753     1     0     0     0     4
       106.231926      101.111891      259.357678     1     0     0     0     3
       312.881232      142.076109      122.913474     1     0     0     0     3
       342.041538      275.751083       12.059296     1     0     0     0     8
       222.032912       96.801691      358.212763     1     0     0     0     5
       401.949140      143.950430      212.626208     1     0     0     0     6
         7.894717      374.818183       99.364017     1     0     0     0     3
       393.527495      204.561012       50.265734     1     0     0     0     7
        69.742284      491.425316      479.477902     1     0     0     0     1
       426.845914      348.103982       63.385283     1     0     0     0     7
       225.186990      466.182655      114.980429     1     0     0     0     5
       229.747429       35.760465      368.963483     1     0     0     0     5
       240.450789      345.019971      121.946652     1     0     0     0     6
       320.230420      169.569931      102.415571     1     0     0     0     6
       212.223482      109.306759      496.694202     1     0     0     0     6
       102.134561      486.166978      360.716015     1     0     0     0     8
        56.888290       93.135690      234.966212     1     0     0     0     2
       455.362726      300.112160      190.841737     1     0     0     0     4
       466.992424       63.669069      309.953530     1     0     0     0     6
       475.549330      246.630497      179.378127     1     0     0     0     2
       167.681750      400.241100      491.105510     1     0     0     0     7
       217.164295      485.162865      169.638447     1     0     0     0     2
       103.379044      424.640253      380.725607     1     0     0     0     5
       267.359903      283.338806       36.203327     1     0     0     0     8
       365.092496      183.496662      478.419438     1     0     0     0     1
       315.698940      443.826628      383.746679     1     0     0     0     2
       344.769791      362.682955       83.851353     1     0     0     0     1
       162.226438      263.076797       10.018460     1     0     0     0     8
        74.456966      352.478058      409.690387     1     0     0     0     1
       318.247453      102.297413       28.496233     1     0     0     0     5
        79.785767      145.135969      499.744462     1     0     0     0     7
       341.354639      104.985734      465.676530     1     0     0     0     5
       387.674773      227.932796      337.318054     1     0     0     0     4
         3.142139      110.924231       17.808109     1     0     0     0     6
        28.124010      405.629373      362.850268     1     0     0     0     5
       489.889370      247.904276      439.599354     1     0     0     0     7
       405.816729      213.439095      281.930596     1     0     0     0     7
       483.769307      122.828662      491.193160     1     0     0     0     4
       294.469296      164.404904      220.990253     1     0     0     0     8
       214.798088      209.313729      107.678917     1     0     0     0     5
        88.533452      493.566191      291.685658     1     0     0     0     1
       218.088125      268.306503       50.663323     1     0     0     0     1
       453.015092      103.064799      493.597095     1     0     0     0     6
        97.723280      174.571122      162.877384     1     0     0     0     7
       252.283741      497.806623       94.024914     1     0     0     0     5
       466.609197      250.442531      383.316318     1     0     0     0     6
        18.324686      278.425888      410.704777     1     0     0     0     1
       280.128992      386.940993      392.426138     1     0     0     0     4
       417.229152      373.474297      182.410986     1     0     0     0     7
       255.082712      151.267153       28.757178     1     0     0     0     5
       416.579481        7.318453      346.863379     1     0     0     0     7
       256.963965        4.693712      433.388645     1     0     0     0     4
       148.468530       21.195408      478.469413     1     0     0     0     4
       395.866890       55.764916      179.204321     1     0     0     0     5
        67.605590        3.244376       46.770792     1     0     0     0     1
       115.312002      231.888056      434.425664     1     0     0     0     1
       419.087959      180.678993       19.416932     1     0     0     0     8
       258.532416      164.778487      436.588807     1     0     0     0     5
       354.592989      291.666307      372.932000     1     0     0     0     3
       104.828352      268.424369      181.979469     1     0     0     0     4
       423.663690      193.316919       61.078445     1     0     0     0     4
        41.805818      247.873867      345.634848     1     0     0     0     5
       282.346832      295.445775       11.645568     1     0     0     0     8
       346.234300       81.595661      100.791963     1     0     0     0     5
        75.455942      402.471304      392.822363     1     0     0     0     2
       379.758257      177.579896       65.008310     1     0     0     0     3
       442.007357      112.973835      175.218025     1     0     0     0     3
       442.662762      467.662369       79.373577     1     0     0     0     4
       287.476383      488.821582      159.665581     1     0     0     0     4
       233.029509      249.005935      398.257359     1     0     0     0     7
       369.101631      321.022604       97.050950     1     0     0     0     7
       459.371763      338.058873      179.646356     1     0     0     0     2
       266.542241      445.756507      312.402741     1     0     0     0     2
       272.007781       89.104943      277.272687     1     0     0     0     5
        89.097067       86.731930      205.358094     1     0     0     0     2
       414.754417      390.218742      110.253583     1     0     0     0     7
       308.020324      186.233203      214.718314     1     0     0     0     6
        87.000815      317.515266      126.802603     1     0     0     0     2
       420.555410      296.940889      147.650702     1     0     0     0     4
       212.245441      152.554726       52.908471     1     0     0     0     3
        57.310954        7.986374      138.729078     1     0     0     0     3
       127.142460      403.493858      259.088525     1     0     0     0     7
       293.026899      226.707295      123.320475     1     0     0     0     3
       165.131567      124.700267      108.086345     1     0     0     0     4
       212.694532       67.912938      398.916035     1     0     0     0     3
         9.297572      464.137863      408.873521     1     0     0     0     4
        19.279401      128.819593      144.028588     1     0     0     0     1
       464.733945      297.098770      255.453474     1     0     0     0     4
       373.498330      377.396934      395.239221     1     0     0     0     2
       115.706865      177.601557       96.042593     1     0     0     0     2
       245.244565      375.028052      424.134980     1     0     0     0     3
        42.077735      165.722922      426.267048     1     0     0     0     4
       369.795979       95.621218      255.475588     1     0     0     0     5
       380.137035      269.758801       22.061292     1     0     0     0     8
       405.158734      434.873032      309.365335     1     0     0     0     4