ITEM: TIMESTEP
0
ITEM: NUMBER OF ATOMS
        7882
ITEM: BOX BOUNDS pp pp pp
  0.0000000E+00   500.000000000000     
  0.0000000E+00   500.000000000000     
  0.0000000E+00   500.000000000000     
ITEM: ATOMS x y z f1 f2 f3 f4 orient radius
        74.379657      171.509530       61.522637     1     0     0     0     4   1.560
       437.295274      376.293351      339.901836     1     0     0     0     2   1.560
       432.600658      464.636730      357.745904     1     0     0     0     4   1.560
         4.944447      334.516896      301.590830     1     0     0     0     7   1.560
       457.799716      182.947114      297.155049     1     0     0     0     2   1.560
       297.026309       59.032824      212.057281     1     0     0     0     5   1.560
       449.346596       62.012055      319.850352     1     0     0     0     6   1.560
       423.700605      446.746399      490.804778     1     0     0     0     1   1.560
       110.393588      269.305219       15.503685     1     0     0     0     3   1.560
       373.566986      275.197376      240.890797     1     0     0     0     8   1.560
       376.799059      415.833191      216.436678     1     0     0     0     7   1.560
        29.146777      359.464587      497.672449     1     0     0     0     1   1.560
       448.039379      455.530655      429.163552     1     0     0     0     4   1.560
       269.225995       71.211512      236.716929     1     0     0     0     2   1.560
        48.156290      285.903441       68.016602     1     0     0     0     5   1.560
       293.952688      326.327257        6.997443     1     0     0     0     5   1.560
       390.815922      222.639608      217.450692     1     0     0     0     5   1.560
        90.007935      486.294411       35.245539     1     0     0     0     2   1.560
       112.883481      238.127715      266.185616     1     0     0     0     7   1.560
        46.022094       72.333973       34.746074     1     0     0     0     2   1.560
       374.935416      388.762082      319.143544     1     0     0     0     3   1.560
        63.990760       98.445620       53.725016     1     0     0     0     3   1.560
        19.260915      468.986864      201.140902     1     0     0     0     5   1.560
        23.384688      115.854347      480.078013     1     0     0     0     4   1.560
       190.021991      150.661881      168.478979     1     0     0     0     3   1.560
       372.110883      283.260410      385.154353     1     0     0     0     7   1.560
       283.850395      232.275621      255.430084     1     0     0     0     7   1.560
       367.192784       37.444308      162.513995     1     0     0     0     1   1.560
       292.692394      142.803303      364.792946     1     0     0     0     8   1.560
        48.234518      403.567797       61.324488     1     0     0     0     5   1.560
       476.797333       35.611247      306.315063     1     0     0     0     3   1.560
       431.171444      281.846982       91.909066     1     0     0     0     6   1.560
       468.022276      193.389819      226.868935     1     0     0     0     6   1.560
       367.048517      484.284672      450.382548     1     0     0     0     3   1.560
        50.436056      493.430554      367.551885     1     0     0     0     1   1.560
       298.625436      360.898049      415.179494     1     0     0     0     4   1.560
       191.667855      160.801715      293.685264     1     0     0     0     7   1.560
       117.700042        6.782307      315.778289     1     0     0     0     4   1.560
       269.523880      448.147904      256.193323     1     0     0     0     2   1.560
       178.492393      113.189651      354.184358     1     0     0     0     2   1.560
       364.232614       58.408467      109.369491     1     0     0     0     8   1.560
       185.660468      244.641032      352.898977     1     0     0     0     2   1.560
       429.426709      418.394830      241.959325     1     0     0     0     2   1.560
       125.968913      413.247682       55.254989     1     0     0     0     7   1.560
       186.908748      459.206379      180.585867     1     0     0     0     6   1.560
       359.434972      324.079030      378.082344     1     0     0     0     1   1.560
       223.709710      240.513596      286.319388     1     0     0     0     4   1.560
       381.882589      228.410168      345.266828     1     0     0     0     4   1.560
       241.104952      110.417184      152.443988     1     0     0     0     2   1.560
        84.023323      439.087788      441.308266     1     0     0     0     1   1.560
       336.111440      337.324565       32.144430     1     0     0     0     1   1.560
       159.073377      446.207882      173.153495     1     0     0     0     7   1.560
       287.908172      491.957371      383.204539     1     0     0     0     7   1.560
       346.993063       92.583563      244.973504     1     0     0     0     6   1.560
       119.205452        0.685571      232.030372     1     0     0     0     3   1.560
       388.057824      418.221908      300.562339     1     0     0     0     6   1.560
       409.758802      449.904627      408.261515     1     0     0     0     5   1.560
       491.416064       28.109472      401.971487     1     0     0     0     8   1.560
       252.017102      198.820805      491.343004     1     0     0     0     4   1.560
       345.677819      401.116289      224.936713     1     0     0     0     4   1.560
       498.040977      446.583215      156.255694     1     0     0     0     1   1.560
       409.255852      490.212158      398.057389     1     0     0     0     4   1.560
       367.573827      442.074774      126.353188     1     0     0     0     1   1.560
       262.453139      423.809501       88.654591     1     0     0     0     5   1.560
       243.363021      167.230667      317.374509     1     0     0     0     2   1.560
       257.418846      433.970011      464.231371     1     0     0     0     3   1.560
       131.952884      128.477259      135.357579     1     0     0     0     4   1.560
       322.263773      252.881660       22.138033     1     0     0     0     7   1.560
       439.128780       87.939852       22.160954     1     0     0     0     4   1.560
       314.612286      165.035175      237.695664     1     0     0     0     1   1.560
       426.527101      262.135599      178.342011     1     0     0     0     1   1.560
       238.320911      316.835437      435.249398     1     0     0     0     2   1.560
       185.993096      223.092564      358.846482     1     0     0     0     3   1.560
       425.206101      211.303959       27.263070     1     0     0     0     2   1.560
        35.552578      189.432081      460.544905     1     0     0     0     3   1.560
        95.112822      131.145403      123.988584     1     0     0     0     1   1.560
       319.861738      396.413859       47.861092     1     0     0     0     4   1.560
       419.083600      123.235890       40.050027     1     0     0     0     3   1.560
       151.692294       29.909319       60.248951     1     0     0     0     6   1.560
       274.724726       98.639499      160.725579     1     0     0     0     5   1.560
        68.008886      308.678454       65.303476     1     0     0     0     5   1.560
       425.798714      400.625718       60.422962     1     0     0     0     3   1.560
       152.495411      189.533721      284.936361     1     0     0     0     1   1.560
       338.209537      331.836446      188.442001     1     0     0     0     8   1.560
       271.816192       81.485677      479.193925     1     0     0     0     5   1.560
       423.818186      292.500144       26.529967     1     0     0     0     1   1.560
       309.071885      449.920681      178.879144     1     0     0     0     1   1.560
       262.600095       78.534394      115.179949     1     0     0     0     6   1.560
       193.296565      182.484734      295.952821     1     0     0     0     5   1.560
       150.138654      193.990417      251.990969     1     0     0     0     5   1.560
       373.156268      143.855940      311.528311     1     0     0     0     6   1.560
       428.744627      104.410449       41.570181     1     0     0     0     1   1.560
       153.882820      385.417148      112.940985     1     0     0     0     3   1.560
       456.559271      163.059563      237.362644     1     0     0     0     8   1.560
       311.117942       10.957904      448.879282     1     0     0     0     1   1.560
        47.874481      306.021556      232.828588     1     0     0     0     4   1.560
       483.475865      396.674018      288.915799     1     0     0     0     3   1.560
       496.312826      378.200080      112.004415     1     0     0     0     5   1.560
       421.013265       10.535838       21.012336     1     0     0     0     6   1.560
       367.562910      367.553569       55.160789     1     0     0     0     1   1.560
       401.457694      484.347227        5.331088     1     0     0     0     4   1.560
        78.886643      168.009092      253.384421     1     0     0     0     4   1.560
       123.727400      496.437641      339.683259     1     0     0     0     7   1.560
        68.052114      459.592943      257.908584     1     0     0     0     8   1.560
        54.544497      407.758569      243.262760     1     0     0     0     1   1.560
       327.566068      167.277141      431.633726     1     0     0     0     5   1.560
       252.163585      207.558152      313.735506     1     0     0     0     1   1.560
       152.754674      113.149614       44.534236     1     0     0     0     6   1.560
       493.499561        7.352413      427.591673     1     0     0     0     5   1.560
       340.052825      481.081462      126.717559     1     0     0     0     5   1.560
       183.759875      371.727435      220.552469     1     0     0     0     1   1.560
       374.150207       74.844396      484.322246     1     0     0     0     6   1.560
       259.611642       16.576776      389.168512     1     0     0     0     4   1.560
       104.030833      161.685347      499.769914     1     0     0     0     2   1.560
        97.545475      224.412921      373.789053     1     0     0     0     5   1.560
       200.181871      461.142461      424.162287     1     0     0     0     7   1.560
       143.824133      490.550985      118.142338     1     0     0     0     3   1.560
       355.233682      348.516629       18.810719     1     0     0     0     2   1.560
       468.352668      107.345473       48.492641     1     0     0     0     7   1.560
       228.584875        5.315262       34.036310     1     0     0     0     3   1.560
        15.209095       60.912634      270.311762     1     0     0     0     6   1.560
       396.521367      304.670672      321.264589     1     0     0     0     5   1.560
        84.617388       55.970821       10.199778     1     0     0     0     2   1.560
        97.384285      252.899768       25.222397     1     0     0     0     1   1.560
       480.718106       42.717836      277.516452     1     0     0     0     1   1.560
       173.260848      432.931325      442.691748     1     0     0     0     7   1.560
        99.851456      352.184145      111.635060     1     0     0     0     1   1.560
       272.110524       40.097725      176.355771     1     0     0     0     6   1.560
       439.315191      430.707894      323.867996     1     0     0     0     3   1.560
       158.770116      440.568125      420.150933     1     0     0     0     7   1.560
       192.230160      311.106234      497.906083     1     0     0     0     7   1.560
       285.184034      178.970706       29.355526     1     0     0     0     2   1.560
       280.732744      401.942416      144.131952     1     0     0     0     7   1.560
       110.224249      160.346982       20.310883     1     0     0     0     4   1.560
       486.466208      433.205139      388.998778     1     0     0     0     3   1.560
       240.249052      220.076834      396.822856     1     0     0     0     3   1.560
       231.369458      398.545609      144.996751     1     0     0     0     3   1.560
       144.480279       77.557732        3.385647     1     0     0     0     8   1.560
       209.124250      308.849948      191.114667     1     0     0     0     3   1.560
       342.671586       72.377072      426.291677     1     0     0     0     5   1.560
       274.842458      153.021068      256.591077     1     0     0     0     1   1.560
       437.104306      117.520610      158.172305     1     0     0     0     1   1.560
       375.830057      253.870672      127.381754     1     0     0     0     7   1.560
       323.470912      487.644000      225.840814     1     0     0     0     8   1.560
       118.106580      198.158135      471.942881     1     0     0     0     4   1.560
       475.553235      296.322466      435.890177     1     0     0     0     7   1.560
       206.499667      435.365578      322.244930     1     0     0     0     8   1.560
       207.107224      289.816237      309.830647     1     0     0     0     5   1.560
       258.630763       53.881515      363.362007     1     0     0     0     5   1.560
       403.221254      236.614719      457.710018     1     0     0     0     4   1.560
       256.133581      445.856743      490.656093     1     0     0     0     8   1.560
       206.512870      477.223419      375.849445     1     0     0     0     1   1.560
       269.245093      180.766073       62.569437     1     0     0     0     5   1.560
       154.934547      431.730173       81.246932     1     0     0     0     1   1.560
        91.402928      103.379346      466.243504     1     0     0     0     2   1.560
       426.816470      123.049065      349.445580     1     0     0     0     1   1.560
        39.933036      231.908788      378.934417     1     0     0     0     5   1.560
       286.576021      381.126375       68.021161     1     0     0     0     1   1.560
       244.326768       39.279893      368.730465     1     0     0     0     8   1.560
       479.555402       79.616889      281.395816     1     0     0     0     5   1.560
       397.501269      187.749634       26.495577     1     0     0     0     1   1.560
       330.168524      488.289093      319.482554     1     0     0     0     8   1.560
       300.526804      166.805926      236.473758     1     0     0     0     4   1.560
       375.680129      319.728140      147.123500     1     0     0     0     8   1.560
       145.406533      174.510026       83.092825     1     0     0     0     5   1.560
       326.648354      332.024633      428.159745     1     0     0     0     7   1.560
       362.799607      406.397186      482.515055     1     0     0     0     5   1.560
       266.631630       15.432959      108.966803     1     0     0     0     4   1.560
       213.282325      169.583021       61.486221     1     0     0     0     3   1.560
        11.988676      176.065603      385.528524     1     0     0     0     1   1.560
        33.781719       90.666006       44.581961     1     0     0     0     1   1.560
       285.543459      143.452575      435.059240     1     0     0     0     1   1.560
       447.214048      465.145160      227.604595     1     0     0     0     4   1.560
       464.194571      259.068370       76.055929     1     0     0     0     2   1.560
       267.774795      457.766053      446.469876     1     0     0     0     5   1.560
         4.873775      100.947940       89.071462     1     0     0     0     5   1.560
       132.749012      172.264023      120.425964     1     0     0     0     6   1.560
       308.446564      390.973329      457.598057     1     0     0     0     3   1.560
       133.151190      313.808731      348.969138     1     0     0     0     1   1.560
       406.208606       25.340973      358.063210     1     0     0     0     7   1.560
       316.704204      292.041320      240.727232     1     0     0     0     8   1.560
       267.440372      364.182031      309.353214     1     0     0     0     5   1.560
       378.362348      167.783460       67.754625     1     0     0     0     6   1.560
       204.346533      443.973436      170.245611     1     0     0     0     2   1.560
       168.019252      259.312375      174.017046     1     0     0     0     5   1.560
        50.148106        1.435091       58.017221     1     0     0     0     5   1.560
       104.079153      147.917216      124.696673     1     0     0     0     1   1.560
       377.063190       16.013405       37.234757     1     0     0     0     2   1.560
       189.755180      315.791600      247.696560     1     0     0     0     3   1.560
       158.004338      430.537531      365.461390     1     0     0     0     7   1.560
       129.891557      214.638727      107.360257     1     0     0     0     8   1.560
       428.466066      459.969920      440.254467     1     0     0     0     4   1.560
       252.917045      316.525394      361.799109     1     0     0     0     2   1.560
        83.299340       69.870676      439.690416     1     0     0     0     3   1.560
       238.119045      335.153848      266.852275     1     0     0     0     1   1.560
       419.594975      246.360072      440.412723     1     0     0     0     7   1.560
       192.470145      123.794691      126.047585     1     0     0     0     6   1.560
       141.568256      130.496833      136.930113     1     0     0     0     2   1.560
       337.322835      219.449500      190.391311     1     0     0     0     6   1.560
        53.222215      416.522467      368.932762     1     0     0     0     2   1.560
       118.206884      332.864636       78.291606     1     0     0     0     6   1.560
       456.954075      437.715718      316.958408     1     0     0     0     8   1.560
       396.114066      357.479829       10.441448     1     0     0     0     6   1.560
       106.982355        9.014752      488.028233     1     0     0     0     5   1.560
       475.966612      241.726542       24.118275     1     0     0     0     4   1.560
       271.078413      438.420498      107.254800     1     0     0     0     2   1.560
       485.306396      226.555819      137.394770     1     0     0     0     7   1.560
       337.667019      357.252107      447.132075     1     0     0     0     8   1.560
       159.141687      207.217553       10.106223     1     0     0     0     8   1.560
       217.837044      366.894332      454.127516     1     0     0     0     6   1.560
        45.493569       48.464172      467.309105     1     0     0     0     2   1.560
       212.157829      302.749394       95.997841     1     0     0     0     2   1.560
       244.003630      492.270470      433.652061     1     0     0     0     2   1.560
       131.180880      158.985074      293.913459     1     0     0     0     6   1.560
       483.451598       95.200701       80.278749     1     0     0     0     8   1.560
       326.156736      302.809614      195.668118     1     0     0     0     6   1.560
        81.207743      225.285827      306.665984     1     0     0     0     3   1.560
       227.461949      473.017507      389.142502     1     0     0     0     3   1.560
       310.075888      468.272504      468.917595     1     0     0     0     5   1.560
       477.156306       88.526554       36.842894     1     0     0     0     7   1.560
       116.776293      188.913530      326.352121     1     0     0     0     7   1.560
       414.851978      292.839631       46.472795     1     0     0     0     3   1.560
       433.286343      421.441466      279.614682     1     0     0     0     4   1.560
       408.142440      145.852157      279.054035     1     0     0     0     2   1.560
       118.228679      428.574225      217.841921     1     0     0     0     7   1.560
        63.827001      309.156438      230.548916     1     0     0     0     4   1.560
       338.632922      228.399364      298.971991     1     0     0     0     2   1.560
        23.656542      289.319648      295.750686     1     0     0     0     4   1.560
        97.231621      135.793296      472.063756     1     0     0     0     1   1.560
       326.275349       67.029622      352.284660     1     0     0     0     7   1.560
        61.614214       30.459956      371.039531     1     0     0     0     8   1.560
       349.750822      120.626952      303.415475     1     0     0     0     2   1.560
       142.765323      195.497399       60.039812     1     0     0     0     2   1.560
        85.232547       86.933966      364.757746     1     0     0     0     3   1.560
       263.980347        2.856491      245.377020     1     0     0     0     4   1.560
       454.652844        4.769338      187.503743     1     0     0     0     2   1.560
       442.413504      370.185912      242.002258     1     0     0     0     7   1.560
       249.160385      373.824637      448.386501     1     0     0     0     8   1.560
       407.752259      472.373963      472.514118     1     0     0     0     1   1.560
        51.678095      173.031840      349.769826     1     0     0     0     3   1.560
       422.895599      129.156584      259.205336     1     0     0     0     5   1.560
       369.442471       79.710822      221.349148     1     0     0     0     5   1.560
       115.709476       95.125928      481.086681     1     0     0     0     5   1.560
       439.899137      186.099915       14.428268     1     0     0     0     5   1.560
       308.905696      148.637989      118.079787     1     0     0     0     2   1.560
       111.382244       65.321524      314.903789     1     0     0     0     4   1.560
       118.470947      406.381154      274.376885     1     0     0     0     8   1.560
       179.443608       42.248350      179.028568     1     0     0     0     2   1.560
       454.161522      366.734798      499.525247     1     0     0     0     3   1.560
       356.119882       78.124030      268.831907     1     0     0     0     8   1.560
       341.806955      485.167326       40.008419     1     0     0     0     5   1.560
        85.169138      113.003237      213.197967     1     0     0     0     2   1.560
       451.254698       10.590985      215.729853     1     0     0     0     3   1.560
        83.978613      345.797821      318.006657     1     0     0     0     5   1.560
       251.118294      427.279013      155.090267     1     0     0     0     2   1.560
       278.629850      305.741426       77.302236     1     0     0     0     1   1.560
       424.985679      242.992976      170.057303     1     0     0     0     6   1.560
        30.103855      250.155719      448.231087     1     0     0     0     1   1.560
       255.291465      336.677738       30.284679     1     0     0     0     4   1.560
       211.904913       86.491331      120.279713     1     0     0     0     2   1.560
       290.743851       24.771187      315.164370     1     0     0     0     4   1.560
       342.349214      195.926873      381.703736     1     0     0     0     5   1.560
       205.360924       39.404280       74.658847     1     0     0     0     4   1.560
       357.555386       60.801066       16.281514     1     0     0     0     8   1.560
       393.663568      150.449466      261.759614     1     0     0     0     7   1.560
       119.964074      135.599041      136.876287     1     0     0     0     8   1.560
        98.712665      283.720791      458.423908     1     0     0     0     4   1.560
       212.940153      182.391831       47.706453     1     0     0     0     7   1.560
       238.982576      208.287717       92.142876     1     0     0     0     6   1.560
       135.199750      186.868483      337.125643     1     0     0     0     8   1.560
        87.109624      270.490577       24.859950     1     0     0     0     8   1.560
       452.089250      336.174140      384.492163     1     0     0     0     1   1.560
       241.473253       19.725584      376.753084     1     0     0     0     4   1.560
       199.136805      294.581095       11.140587     1     0     0     0     7   1.560
       314.744480       85.990874      351.726925     1     0     0     0     7   1.560
        62.755671      273.189103        4.888802     1     0     0     0     3   1.560
       444.093995      228.874901      331.782584     1     0     0     0     3   1.560
       245.341129       14.798424      161.149076     1     0     0     0     2   1.560
        50.188602       83.556644      303.720559     1     0     0     0     7   1.560
        93.478424      314.152800      299.016009     1     0     0     0     5   1.560
       215.219920      462.281745       16.911922     1     0     0     0     8   1.560
       125.954425      412.807786       32.441057     1     0     0     0     2   1.560
       304.676807      238.502902      135.269492     1     0     0     0     6   1.560
        36.616178      320.303767      302.217035     1     0     0     0     2   1.560
       216.159727        7.506353      258.610596     1     0     0     0     7   1.560
       149.306646      179.795287      412.313987     1     0     0     0     8   1.560
        50.584423      421.382840      240.470783     1     0     0     0     6   1.560
       456.359976       76.081758      470.509589     1     0     0     0     8   1.560
       101.623818      447.875091      223.628615     1     0     0     0     8   1.560
       143.406846       35.579314      356.567742     1     0     0     0     2   1.560
       111.870168      365.419001      124.327959     1     0     0     0     5   1.560
       375.703284      129.693122      178.012892     1     0     0     0     3   1.560
       295.540450      252.975174      250.587334     1     0     0     0     5   1.560
       126.679091       32.145166      289.459217     1     0     0     0     6   1.560
       456.086772      132.323523      469.705865     1     0     0     0     1   1.560
       444.033665       61.469907      406.109735     1     0     0     0     1   1.560
        26.372884      383.641141      392.806730     1     0     0     0     4   1.560
       226.610661      461.764518      206.528383     1     0     0     0     8   1.560
       490.124698       95.406791      296.807714     1     0     0     0     7   1.560
        35.748182      419.750913      402.451648     1     0     0     0     4   1.560
       457.989815      289.421886      389.142435     1     0     0     0     2   1.560
        42.348298      223.886433      307.967618     1     0     0     0     3   1.560
       371.095276      428.853823      461.318643     1     0     0     0     5   1.560
       429.280272      256.188237      255.097870     1     0     0     0     6   1.560
        40.031106       65.803487      482.731456     1     0     0     0     3   1.560
       288.570483      214.308224        5.556330     1     0     0     0     8   1.560
       110.396552      362.830475      207.732864     1     0     0     0     5   1.560
       292.526248      239.575090       27.527359     1     0     0     0     6   1.560
        96.144310       37.613626      154.125169     1     0     0     0     4   1.560
       256.962491      233.424644      261.375784     1     0     0     0     4   1.560
        18.565619       86.469029      444.358039     1     0     0     0     5   1.560
         5.485709      409.541447      247.111133     1     0     0     0     3   1.560
       125.575349       63.680859       97.075752     1     0     0     0     2   1.560
       387.300591      334.833756      437.985857     1     0     0     0     4   1.560
       471.966596      224.997191      345.490191     1     0     0     0     7   1.560
       287.649405      423.612030      138.095214     1     0     0     0     6   1.560
       265.180302      379.667407      316.212301     1     0     0     0     1   1.560
       355.959727      440.433116      219.791625     1     0     0     0     6   1.560
       441.053170      266.101585      137.140628     1     0     0     0     4   1.560
        57.585628      417.784269      188.788501     1     0     0     0     4   1.560
        72.725939       90.744533      468.540366     1     0     0     0     4   1.560
       318.177340      164.281492      413.096631     1     0     0     0     4   1.560
        62.823473      341.754275      451.836974     1     0     0     0     7   1.560
       148.133290       87.043505       73.648275     1     0     0     0     3   1.560
       441.155259      192.014933      127.416759     1     0     0     0     1   1.560
        12.851327      491.668038      381.024731     1     0     0     0     6   1.560
       409.686662      297.301526      271.714169     1     0     0     0     2   1.560
        17.831681      359.351168      237.413542     1     0     0     0     7   1.560
       348.533238       48.066781      420.590646     1     0     0     0     5   1.560
       183.325369      273.249917      144.815243     1     0     0     0     5   1.560
       144.796675      359.505094      208.822578     1     0     0     0     2   1.560
       182.121467       91.253921      154.378322     1     0     0     0     3   1.560
       339.927452      124.997497      341.756824     1     0     0     0     1   1.560
       232.120260        8.635693      234.847074     1     0     0     0     4   1.560
       464.394392       25.919566      123.043254     1     0     0     0     4   1.560
       384.115283       99.910894      308.893951     1     0     0     0     8   1.560
       458.672589      482.250229      167.170980     1     0     0     0     2   1.560
       120.554145      391.535825      415.922868     1     0     0     0     3   1.560