ITEM: TIMESTEP
0
ITEM: NUMBER OF ATOMS
        7880
ITEM: BOX BOUNDS pp pp pp
  0.0000000E+00   500.000000000000     
  0.0000000E+00   500.000000000000     
  0.0000000E+00   500.000000000000     
ITEM: ATOMS x y z f1 f2 f3 f4 orient radius
        75.962232      169.926956       59.940062     1     0     0     0     6   1.560
       440.460423      376.293351      339.901836     1     0     0     0     5   1.560
       487.165073      219.091395      377.969410     1     0     0     0     8   1.560
         8.109596      334.516896      304.755980     1     0     0     0     1   1.560
       451.469417      186.112264      300.320199     1     0     0     0     6   1.560
       289.113435       57.450249      210.474706     1     0     0     0     2   1.560
       455.676895       68.342355      310.354903     1     0     0     0     4   1.560
       423.700605      449.911549      493.969928     1     0     0     0     1   1.560
       111.976163      267.722644       13.921110     1     0     0     0     5   1.560
       371.984411      270.449652      242.473372     1     0     0     0     1   1.560
       376.799059      415.833191      216.436678     1     0     0     0     5   1.560
        24.399053      364.212311      499.255024     1     0     0     0     6   1.560
       449.621954      450.782930      430.746127     1     0     0     0     4   1.560
       266.060845       68.046362      233.551780     1     0     0     0     1   1.560
        49.738865      284.320867       63.268877     1     0     0     0     5   1.560
       293.952688      332.657557       13.327742     1     0     0     0     6   1.560
       389.233347      224.222183      215.868117     1     0     0     0     8   1.560
        90.007935      489.459560       35.245539     1     0     0     0     4   1.560
       111.300906      236.545140      270.933341     1     0     0     0     6   1.560
        47.604669       73.916548       29.998350     1     0     0     0     4   1.560
       378.100566      391.927232      315.978394     1     0     0     0     6   1.560
        65.573335       93.697896       55.307591     1     0     0     0     7   1.560
        20.843490      470.569439      196.393178     1     0     0     0     7   1.560
        24.967263      114.271772      478.495438     1     0     0     0     5   1.560
       185.274267      145.914157      163.731255     1     0     0     0     4   1.560
       373.693457      281.677835      386.736928     1     0     0     0     4   1.560
       285.432969      233.858196      250.682360     1     0     0     0     8   1.560
       367.192784       37.444308      165.679145     1     0     0     0     7   1.560
       292.692394      139.638154      367.958096     1     0     0     0     3   1.560
        49.817093      395.654922       69.237362     1     0     0     0     3   1.560
       476.797333       38.776396      306.315063     1     0     0     0     8   1.560
       210.992006      159.833688      381.655284     1     0     0     0     8   1.560
       474.352575      190.224669      223.703785     1     0     0     0     5   1.560
       367.048517      487.449822      450.382548     1     0     0     0     6   1.560
        44.105757      496.595704      367.551885     1     0     0     0     4   1.560
       304.955736      364.063199      421.509793     1     0     0     0     7   1.560
       193.250429      159.219140      295.267839     1     0     0     0     7   1.560
       112.952317        5.199733      314.195714     1     0     0     0     2   1.560
       266.358731      448.147904      262.523623     1     0     0     0     1   1.560
       172.162094      110.024502      354.184358     1     0     0     0     4   1.560
       221.092839      393.973725      357.410584     1     0     0     0     7   1.560
       190.408192      246.223606      360.811851     1     0     0     0     3   1.560
       429.426709      418.394830      235.629026     1     0     0     0     4   1.560
       127.551488      414.830256       50.507264     1     0     0     0     2   1.560
       191.656472      457.623804      179.003292     1     0     0     0     1   1.560
       365.765271      324.079030      378.082344     1     0     0     0     5   1.560
       222.127136      238.931021      287.901963     1     0     0     0     7   1.560
       380.300014      233.157893      343.684254     1     0     0     0     6   1.560
       247.435251      104.086885      146.113689     1     0     0     0     5   1.560
        82.440748      437.505213      442.890841     1     0     0     0     3   1.560
       337.694015      332.576840       30.561855     1     0     0     0     5   1.560
       157.490802      447.790457      171.570920     1     0     0     0     7   1.560
       286.325597      490.374796      387.952263     1     0     0     0     7   1.560
       351.740787      100.496437      246.556079     1     0     0     0     8   1.560
       117.622877        5.433296      227.282647     1     0     0     0     4   1.560
       389.640399      416.639333      298.979764     1     0     0     0     6   1.560
       409.758802      446.739477      414.591814     1     0     0     0     1   1.560
       489.833489       26.526897      403.554061     1     0     0     0     7   1.560
       258.347401      195.655655      491.343004     1     0     0     0     3   1.560
       189.067185      340.802014      316.355141     1     0     0     0     8   1.560
       499.623552      445.000640      161.003418     1     0     0     0     3   1.560
       410.838427      491.794733      402.805113     1     0     0     0     1   1.560
       367.573827      442.074774      126.353188     1     0     0     0     1   1.560
       267.200864      419.061776       96.567465     1     0     0     0     3   1.560
       244.945596      165.648093      312.626785     1     0     0     0     5   1.560
       259.001421      432.387436      465.813946     1     0     0     0     5   1.560
       131.952884      128.477259      135.357579     1     0     0     0     3   1.560
       323.846348      257.629385       20.555458     1     0     0     0     8   1.560
       437.546205       89.522427       23.743529     1     0     0     0     6   1.560
       320.942585      161.870025      231.365365     1     0     0     0     5   1.560
       431.274826      263.718174      179.924586     1     0     0     0     1   1.560
       243.068636      324.748311      430.501673     1     0     0     0     8   1.560
       187.575671      221.509990      354.098758     1     0     0     0     5   1.560
       423.623527      209.721384       25.680495     1     0     0     0     7   1.560
        38.717728      189.432081      460.544905     1     0     0     0     1   1.560
        96.695397      129.562828      125.571158     1     0     0     0     3   1.560
       316.696589      399.579008       51.026242     1     0     0     0     2   1.560
       423.831324      121.653315       38.467452     1     0     0     0     5   1.560
       151.692294       29.909319       60.248951     1     0     0     0     6   1.560
       273.142151       93.891774      162.308153     1     0     0     0     7   1.560
        63.261161      313.426179       70.051200     1     0     0     0     2   1.560
       425.798714      400.625718       60.422962     1     0     0     0     3   1.560
       157.243135      181.620847      286.518935     1     0     0     0     3   1.560
       341.374687      331.836446      191.607150     1     0     0     0     8   1.560
       278.146491       78.320528      476.028776     1     0     0     0     3   1.560
       423.818186      292.500144       26.529967     1     0     0     0     7   1.560
       307.489310      448.338106      180.461719     1     0     0     0     7   1.560
       256.269795       78.534394      118.345099     1     0     0     0     6   1.560
       198.044289      184.067309      294.370246     1     0     0     0     3   1.560
       289.122194      433.862847        5.371442     1     0     0     0     8   1.560
       373.156268      143.855940      311.528311     1     0     0     0     2   1.560
       430.327201       99.662724       43.152756     1     0     0     0     3   1.560
       153.882820      388.582298      112.940985     1     0     0     0     4   1.560
       458.141846      161.476988      235.780069     1     0     0     0     2   1.560
       311.117942        7.792754      445.714132     1     0     0     0     5   1.560
       177.919838      233.541169      404.525067     1     0     0     0     2   1.560
       486.641014      406.169467      301.576398     1     0     0     0     6   1.560
       497.895401      376.617505      110.421840     1     0     0     0     5   1.560
       416.265541        8.953263       19.429761     1     0     0     0     7   1.560
       372.310635      365.970994       50.413064     1     0     0     0     7   1.560
       398.292544      481.182078        8.496238     1     0     0     0     7   1.560
        77.304068      169.591667      248.636697     1     0     0     0     4   1.560
       118.979675      498.020215      338.100684     1     0     0     0     2   1.560
        63.304389      458.010368      259.491159     1     0     0     0     7   1.560
        49.796772      403.010845      248.010484     1     0     0     0     7   1.560
       327.566068      167.277141      431.633726     1     0     0     0     2   1.560
       255.328735      210.723302      316.900655     1     0     0     0     7   1.560
       151.172099      108.401889       42.951661     1     0     0     0     2   1.560
       495.082136        8.934988      426.009098     1     0     0     0     5   1.560
       340.052825      481.081462      129.882708     1     0     0     0     6   1.560
       186.925025      371.727435      223.717618     1     0     0     0     1   1.560
       372.567632       73.261821      492.235120     1     0     0     0     1   1.560
       264.359367       14.994201      384.420788     1     0     0     0     5   1.560
       104.030833      168.015647        6.100213     1     0     0     0     1   1.560
        95.962900      225.995496      369.041328     1     0     0     0     6   1.560
       203.347021      457.977311      420.997138     1     0     0     0     5   1.560
       145.406707      495.298709      110.229464     1     0     0     0     8   1.560
       359.981407      356.429503       17.228144     1     0     0     0     1   1.560
       468.352668      110.510622       45.327491     1     0     0     0     7   1.560
       233.332600        0.567538       35.618885     1     0     0     0     5   1.560
       152.513645      235.575587      392.852691     1     0     0     0     2   1.560
       394.938792      309.418397      322.847164     1     0     0     0     8   1.560
        89.365112       60.718545       11.782353     1     0     0     0     4   1.560
        98.966860      244.986894       29.970122     1     0     0     0     3   1.560
       483.883256       36.387537      271.186153     1     0     0     0     5   1.560
       174.843422      434.513900      441.109173     1     0     0     0     8   1.560
        96.686306      352.184145      111.635060     1     0     0     0     7   1.560
       276.858249       44.845449      174.773196     1     0     0     0     1   1.560
       434.567466      435.455619      325.450570     1     0     0     0     4   1.560
       158.770116      440.568125      420.150933     1     0     0     0     7   1.560
       192.230160      307.941084      491.575784     1     0     0     0     8   1.560
       285.184034      182.135856       29.355526     1     0     0     0     5   1.560
       279.150169      403.524991      145.714527     1     0     0     0     8   1.560
       108.641674      161.929557       18.728308     1     0     0     0     2   1.560
       488.048783      428.457415      384.251054     1     0     0     0     2   1.560
       243.414202      216.911684      399.988006     1     0     0     0     3   1.560
       226.621734      400.128184      137.083877     1     0     0     0     2   1.560
       142.897704       75.975157        1.803072     1     0     0     0     2   1.560
       213.871975      304.102224      195.862391     1     0     0     0     3   1.560
       345.836735       72.377072      423.126527     1     0     0     0     4   1.560
       271.677309      156.186218      256.591077     1     0     0     0     5   1.560
       440.269455      120.685760      161.337455     1     0     0     0     1   1.560
       378.995207      247.540372      127.381754     1     0     0     0     3   1.560
       379.155510      140.252954      274.575269     1     0     0     0     5   1.560
       122.854305      199.740709      470.360306     1     0     0     0     1   1.560
       472.388086      296.322466      435.890177     1     0     0     0     4   1.560
       203.334517      438.530727      319.079781     1     0     0     0     4   1.560
       205.524650      285.068512      311.413222     1     0     0     0     4   1.560
       260.213338       52.298940      364.944581     1     0     0     0     3   1.560
       406.386404      242.945019      457.710018     1     0     0     0     8   1.560
       256.133581      442.691594      490.656093     1     0     0     0     6   1.560
       203.347721      477.223419      375.849445     1     0     0     0     6   1.560
       269.245093      174.435774       62.569437     1     0     0     0     5   1.560
       158.099697      434.895322       78.081783     1     0     0     0     4   1.560
        96.150653      104.961921      467.826078     1     0     0     0     5   1.560
       428.399045      121.466490      351.028155     1     0     0     0     3   1.560
        39.933036      228.743639      382.099566     1     0     0     0     3   1.560
       379.576693        3.837713      202.592762     1     0     0     0     2   1.560
       245.909343       40.862468      367.147890     1     0     0     0     8   1.560
       484.303127       74.869164      276.648092     1     0     0     0     5   1.560
       394.336119      187.749634       26.495577     1     0     0     0     2   1.560
       331.751099      489.871668      317.899979     1     0     0     0     7   1.560
       305.274528      162.058202      231.726033     1     0     0     0     5   1.560
       377.262704      321.310715      148.706075     1     0     0     0     1   1.560
       140.658809      172.927451       81.510250     1     0     0     0     2   1.560
       325.065779      327.276909      429.742319     1     0     0     0     7   1.560
       356.469307      409.562335      479.349906     1     0     0     0     4   1.560
       266.631630       15.432959      108.966803     1     0     0     0     4   1.560
       214.864900      171.165596       59.903646     1     0     0     0     8   1.560
         8.823527      179.230753      382.363375     1     0     0     0     4   1.560
        33.781719       93.831156       41.416812     1     0     0     0     5   1.560
       283.960884      145.035150      436.641815     1     0     0     0     3   1.560
       450.379198      461.980011      230.769745     1     0     0     0     3   1.560
       461.029422      255.903221       76.055929     1     0     0     0     7   1.560
       267.774795      457.766053      446.469876     1     0     0     0     1   1.560
         4.873775      100.947940       89.071462     1     0     0     0     8   1.560
       135.914161      169.098873      126.756263     1     0     0     0     3   1.560
       316.359438      392.555904      459.180632     1     0     0     0     1   1.560
       139.481489      310.643581      348.969138     1     0     0     0     5   1.560
       404.626031       26.923548      356.480635     1     0     0     0     4   1.560
       310.373904      292.041320      240.727232     1     0     0     0     2   1.560
       269.022947      365.764606      310.935789     1     0     0     0     1   1.560
       375.197198      167.783460       70.919775     1     0     0     0     7   1.560
       205.929108      445.556010      174.993336     1     0     0     0     7   1.560
       164.854102      262.477525      177.182195     1     0     0     0     1   1.560
        50.148106        1.435091       54.852071     1     0     0     0     5   1.560
       100.914003      151.082366      127.861822     1     0     0     0     7   1.560
       380.228340       22.343704       43.565056     1     0     0     0     1   1.560
       192.920330      312.626451      247.696560     1     0     0     0     4   1.560
       156.421763      432.120106      367.043965     1     0     0     0     6   1.560
       128.308982      216.221302      105.777682     1     0     0     0     1   1.560
       323.932716      481.545776      221.621486     1     0     0     0     2   1.560
       248.169320      314.942819      363.381684     1     0     0     0     7   1.560
        83.299340       73.035826      436.525267     1     0     0     0     8   1.560
        62.742666       79.817626      182.639901     1     0     0     0     8   1.560
       418.012400      247.942647      438.830148     1     0     0     0     4   1.560
       194.052720      125.377266      124.465010     1     0     0     0     3   1.560
       144.733405      130.496833      140.095263     1     0     0     0     3   1.560
       335.740260      214.701775      195.139035     1     0     0     0     2   1.560
        54.804790      418.105042      370.515337     1     0     0     0     1   1.560
       113.459159      337.612361       83.039330     1     0     0     0     6   1.560
       461.701800      436.133143      315.375833     1     0     0     0     5   1.560
       397.696641      355.897255       12.024023     1     0     0     0     1   1.560
       113.312654      499.519303      484.863083     1     0     0     0     5   1.560
       479.131762      238.561392       27.283424     1     0     0     0     3   1.560
       274.243563      435.255348      110.419949     1     0     0     0     3   1.560
       485.306396      223.390669      134.229620     1     0     0     0     2   1.560
       339.249593      361.999831      448.714650     1     0     0     0     5   1.560
       162.306836      207.217553       10.106223     1     0     0     0     3   1.560
       213.089319      358.981457      458.875240     1     0     0     0     7   1.560
        42.328420       51.629322      470.474254     1     0     0     0     6   1.560
       213.740404      307.497119       88.084967     1     0     0     0     4   1.560
       236.090756      493.853045      432.069486     1     0     0     0     2   1.560
       129.598305      154.237350      289.165734     1     0     0     0     3   1.560
       483.451598       92.035551       83.443899     1     0     0     0     7   1.560
       324.574161      304.392189      197.250692     1     0     0     0     5   1.560
        82.790318      226.868402      305.083409     1     0     0     0     4   1.560
       227.461949      469.852357      389.142502     1     0     0     0     7   1.560
       310.075888      465.107354      472.082745     1     0     0     0     4   1.560
       473.991156       85.361404       36.842894     1     0     0     0     2   1.560
       113.611143      188.913530      323.186971     1     0     0     0     4   1.560
       421.182277      299.169930       52.803094     1     0     0     0     1   1.560
       433.286343      421.441466      279.614682     1     0     0     0     2   1.560
       414.472739      145.852157      285.384335     1     0     0     0     1   1.560
       113.480955      430.156800      216.259346     1     0     0     0     6   1.560
        66.992151      312.321588      233.714065     1     0     0     0     1   1.560
       340.215496      229.981939      300.554566     1     0     0     0     1   1.560
        20.491392      289.319648      292.585537     1     0     0     0     4   1.560
       101.979346      137.375871      470.481181     1     0     0     0     8   1.560
       326.275349       67.029622      352.284660     1     0     0     0     8   1.560
        63.196789       28.877381      369.456957     1     0     0     0     8   1.560
       354.498547      122.209527      308.163199     1     0     0     0     1   1.560
       141.182748      193.914824       61.622387     1     0     0     0     8   1.560
        85.232547       83.768817      364.757746     1     0     0     0     2   1.560
       259.232622       10.769365      246.959595     1     0     0     0     4   1.560
       446.739970        0.021613      182.756018     1     0     0     0     6   1.560
       440.830929      371.768487      243.584832     1     0     0     0     5   1.560
       249.160385      367.494337      445.221352     1     0     0     0     2   1.560
       407.752259      472.373963      472.514118     1     0     0     0     2   1.560
        50.095521      174.614415      351.352401     1     0     0     0     3   1.560
       422.895599      138.652033      259.205336     1     0     0     0     8   1.560
       369.442471       79.710822      221.349148     1     0     0     0     5   1.560
       115.709476       95.125928      481.086681     1     0     0     0     3   1.560
       435.151413      197.177938       12.845693     1     0     0     0     4   1.560
       308.905696      148.637989      118.079787     1     0     0     0     8   1.560
       108.217094       74.816973      311.738640     1     0     0     0     4   1.560
       120.053522      407.963729      275.959460     1     0     0     0     3   1.560
       169.948159       45.413500      175.863418     1     0     0     0     4   1.560
       450.996373      366.734798      496.360098     1     0     0     0     3   1.560
       352.954733       78.124030      265.666757     1     0     0     0     4   1.560
       343.389530      486.749901       41.590994     1     0     0     0     2   1.560
        77.256264      105.090363      214.780542     1     0     0     0     7   1.560
       449.672123        9.008410      217.312428     1     0     0     0     2   1.560
        82.396039      344.215246      316.424082     1     0     0     0     4   1.560
       249.535719      422.531288      159.837991     1     0     0     0     7   1.560
       278.629850      305.741426       77.302236     1     0     0     0     1   1.560
       429.733403      244.575551      165.309579     1     0     0     0     8   1.560
        33.269005      253.320868      451.396236     1     0     0     0     1   1.560
       256.874040      335.095163       31.867254     1     0     0     0     3   1.560
       211.904913       89.656480      120.279713     1     0     0     0     1   1.560
       293.909001       21.606037      318.329520     1     0     0     0     5   1.560
       347.096938      197.509448      386.451461     1     0     0     0     1   1.560
       200.613199       44.152005       79.406571     1     0     0     0     3   1.560
       362.303111       65.548790       17.864089     1     0     0     0     1   1.560
       393.663568      144.119167      261.759614     1     0     0     0     4   1.560
       123.129224      141.929341      136.876287     1     0     0     0     6   1.560
       101.877815      293.216240      474.249656     1     0     0     0     1   1.560
       209.775004      179.226682       47.706453     1     0     0     0     7   1.560
       238.982576      214.618016       88.977727     1     0     0     0     8   1.560
       138.364899      183.703333      337.125643     1     0     0     0     5   1.560
        85.527049      268.908002       26.442525     1     0     0     0     7   1.560
       450.506675      337.756715      386.074737     1     0     0     0     6   1.560
       241.473253       19.725584      376.753084     1     0     0     0     4   1.560
       199.136805      294.581095       11.140587     1     0     0     0     5   1.560
       314.744480       89.156023      351.726925     1     0     0     0     8   1.560
        70.668545      268.441379       12.801676     1     0     0     0     3   1.560
       445.676570      227.292326      333.365159     1     0     0     0     3   1.560
       248.506278       11.633274      154.818777     1     0     0     0     2   1.560
        51.771177       85.139219      308.468284     1     0     0     0     7   1.560
        91.895849      312.570225      297.433434     1     0     0     0     3   1.560
       216.802495      463.864320       15.329348     1     0     0     0     8   1.560
       125.954425      409.642637       29.275907     1     0     0     0     8   1.560
       306.259382      233.755178      136.852066     1     0     0     0     5   1.560
       197.351778       59.589323      442.973423     1     0     0     0     8   1.560
       211.412002        9.088928      257.028021     1     0     0     0     4   1.560
       147.724071      178.212712      413.896562     1     0     0     0     4   1.560
        53.749573      421.382840      240.470783     1     0     0     0     8   1.560
       459.525125       76.081758      467.344440     1     0     0     0     5   1.560
       106.371542      449.457666      222.046040     1     0     0     0     1   1.560
       146.571995       35.579314      362.898041     1     0     0     0     3   1.560
       116.617893      360.671277      122.745385     1     0     0     0     3   1.560
       375.703284      136.023421      171.682593     1     0     0     0     4   1.560
       298.705600      252.975174      250.587334     1     0     0     0     4   1.560
       126.679091       32.145166      289.459217     1     0     0     0     6   1.560
       459.251922      132.323523      472.871015     1     0     0     0     5   1.560
       444.033665       61.469907      409.274885     1     0     0     0     7   1.560
        31.120608      378.893417      397.554455     1     0     0     0     3   1.560
       231.358386      460.181944      208.110958     1     0     0     0     2   1.560
       493.289848       98.571941      296.807714     1     0     0     0     8   1.560
        38.913332      422.916063      405.616798     1     0     0     0     1   1.560
       456.407240      287.839311      387.559860     1     0     0     0     2   1.560
        47.096022      215.973559      300.054744     1     0     0     0     2   1.560
       374.260425      425.688673      467.648943     1     0     0     0     7   1.560
       429.280272      259.353386      255.097870     1     0     0     0     8   1.560
        32.118232       67.386062      477.983732     1     0     0     0     6   1.560
       291.735633      214.308224        5.556330     1     0     0     0     2   1.560
       111.979127      361.247900      209.315439     1     0     0     0     3   1.560
       295.691398      245.905389       21.197059     1     0     0     0     1   1.560
       414.045443      452.902199      473.138153     1     0     0     0     5   1.560
       255.379917      238.172368      256.628059     1     0     0     0     8   1.560
        21.730769       83.303879      441.192889     1     0     0     0     5   1.560
         2.320559      409.541447      243.945983     1     0     0     0     7   1.560
       128.740498       60.515709      100.240902     1     0     0     0     1   1.560
       380.970291      341.164055      434.820707     1     0     0     0     4   1.560
       467.218871      223.414616      347.072765     1     0     0     0     4   1.560
       287.649405      420.446881      138.095214     1     0     0     0     8   1.560
       266.762877      381.249982      317.794876     1     0     0     0     1   1.560
       351.212003      435.685392      221.374200     1     0     0     0     6   1.560
       437.888021      272.431884      143.470928     1     0     0     0     1   1.560
        65.498503      416.201694      193.536225     1     0     0     0     3   1.560
       154.927613      394.999356      249.240408     1     0     0     0     2   1.560
       319.759915      162.698917      414.679206     1     0     0     0     2   1.560
        64.406048      337.006551      453.419549     1     0     0     0     2   1.560
       148.133290       90.208655       70.483125     1     0     0     0     8   1.560
       441.155259      188.849784      130.581908     1     0     0     0     7   1.560
        12.851327      491.668038      381.024731     1     0     0     0     6   1.560
       404.938938      302.049250      266.966445     1     0     0     0     4   1.560
        14.666531      359.351168      231.083242     1     0     0     0     2   1.560
       348.533238       48.066781      417.425497     1     0     0     0     8   1.560
       188.073093      268.502193      146.397818     1     0     0     0     5   1.560
       146.379249      357.922520      210.405153     1     0     0     0     3   1.560
       175.791167       94.419071      151.213173     1     0     0     0     2   1.560
       335.179728      123.414923      340.174249     1     0     0     0     4   1.560
       230.537685        7.053118      233.264500     1     0     0     0     7   1.560
       465.976967       18.006691      121.460679     1     0     0     0     3   1.560
       385.697858       98.328319      310.476526     1     0     0     0     5   1.560
       460.255164      483.832804      168.753555     1     0     0     0     1   1.560
       122.136720      386.788100      420.670593     1     0     0     0     7   1.560