ITEM: TIMESTEP
0
ITEM: NUMBER OF ATOMS
        7879
ITEM: BOX BOUNDS pp pp pp
  0.0000000E+00   500.000000000000     
  0.0000000E+00   500.000000000000     
  0.0000000E+00   500.000000000000     
ITEM: ATOMS x y z nV nH f3 f4 orient
       137.185933       24.194794      236.365542     1     0     0     0     7
       245.079214      415.568912      245.241134     1     0     0     0     7
       415.888289      373.548113      129.510881     1     0     0     0     6
       209.299372       13.491276      262.626648     1     0     0     0     3
        80.053503       91.910383      194.177449     1     0     0     0     3
       411.988890      406.781967      275.003726     1     0     0     0     1
       353.260753      309.230366      180.286252     1     0     0     0     5
       307.464928       59.290384      462.615479     1     0     0     0     1
       491.091312      337.917356      481.346473     1     0     0     0     6
       103.543921       69.122702       28.675510     1     0     0     0     1
       272.575329      157.812142      265.331034     1     0     0     0     3
        46.737931      378.239806      401.969659     1     0     0     0     4
       202.892690        5.609582      290.521409     1     0     0     0     2
       128.014499      320.339368       67.453577     1     0     0     0     6
       186.298224      210.491996      446.933521     1     0     0     0     6
       338.697351      366.610712       85.579786     1     0     0     0     6
       301.536484        0.966078      372.229234     1     0     0     0     2
        83.865999      366.839895      495.497995     1     0     0     0     4
       288.655859      440.574720      124.630788     1     0     0     0     2
        53.253377       91.821480      435.158751     1     0     0     0     5
        94.007555      482.126074      139.974404     1     0     0     0     3
       226.822498      497.329709        1.659099     1     0     0     0     6
       297.051574      307.269050      381.360303     1     0     0     0     7
       410.125366      327.442883      470.264964     1     0     0     0     8
       320.042249      434.695947      347.798274     1     0     0     0     6
       288.178143       17.829903      432.209685     1     0     0     0     1
       433.582087      295.617381      318.955244     1     0     0     0     1
       173.051810      378.841531      295.735336     1     0     0     0     2
       111.692003      210.989252      384.705946     1     0     0     0     3
       173.157162      231.490596      387.784878     1     0     0     0     6
       292.230072      261.243855      260.006247     1     0     0     0     2
        52.286325      410.872765      387.235283     1     0     0     0     4
       269.028045       76.337728       20.586063     1     0     0     0     7
       484.848474      298.721607      457.215672     1     0     0     0     3
       211.686519      439.543593      111.700593     1     0     0     0     2
       170.489997        5.445005       22.784974     1     0     0     0     5
       324.388874      226.032385       57.882002     1     0     0     0     7
       164.834612        3.546824      200.852413     1     0     0     0     3
       413.732686      175.312144      208.655945     1     0     0     0     5
       338.839070      381.768536      465.914165     1     0     0     0     4
        92.073669      207.600535       14.457433     1     0     0     0     7
       289.465788      257.268959      287.600270     1     0     0     0     4
       112.528814        4.813995       44.714688     1     0     0     0     8
       262.033728       57.896181      176.924923     1     0     0     0     7
       334.827274      337.386785      187.272210     1     0     0     0     8
       431.842968      134.641845      408.645090     1     0     0     0     4
        43.249519      266.818884      427.897312     1     0     0     0     2
       101.927535       97.371736      430.660282     1     0     0     0     4
         7.100327      351.940942      330.604825     1     0     0     0     5
        95.231080       86.703459       46.066575     1     0     0     0     6
       240.260340      119.490877      275.809177     1     0     0     0     7
       452.050666      312.745587      133.252294     1     0     0     0     8
         9.383683       65.032231      444.072858     1     0     0     0     5
       497.621803      171.393036      201.059988     1     0     0     0     5
       437.730767      276.390933      149.742546     1     0     0     0     6
       280.309955      171.379613      335.717072     1     0     0     0     6
        80.129750      153.208771      446.391522     1     0     0     0     2
       118.070617       19.033879      489.407173     1     0     0     0     1
       173.805225      252.949662      242.817073     1     0     0     0     3
       449.983942      250.261660      231.591588     1     0     0     0     7
       354.366169       63.803683       86.779386     1     0     0     0     4
        82.569468        7.163584      345.870308     1     0     0     0     2
       356.540167      150.087613       94.885081     1     0     0     0     7
       434.825086      417.452504       75.816576     1     0     0     0     4
       394.112843      277.695911      237.185270     1     0     0     0     5
       464.291233      405.265885      410.818633     1     0     0     0     4
       280.331160       10.046240       66.464332     1     0     0     0     4
       374.995211      444.858787      438.864633     1     0     0     0     4
       130.073284      414.001325      375.843584     1     0     0     0     1
       255.877201      275.593136      326.339118     1     0     0     0     8
       354.361546      195.133012      408.145506     1     0     0     0     2
       350.779050      161.381353      399.302796     1     0     0     0     3
       304.558597      329.763308      361.586835     1     0     0     0     1
       359.331904      334.623794      337.434315     1     0     0     0     5
       468.002218       62.395500       81.954916     1     0     0     0     5
       328.742739      419.054760      493.376841     1     0     0     0     6
       416.494304      309.714262       46.428596     1     0     0     0     6
       359.789137      459.178374      240.050768     1     0     0     0     5
       372.001846      466.185212      302.060327     1     0     0     0     4
       277.671611      495.493154      392.209803     1     0     0     0     7
       101.857393       43.260518      105.851108     1     0     0     0     7
        68.898181      447.644381      207.370283     1     0     0     0     4
       476.562313      200.017669      446.253447     1     0     0     0     1
       194.461706      232.846611      385.645610     1     0     0     0     5
       116.599556      207.377093      185.424856     1     0     0     0     2
       352.468846      145.675081       36.239596     1     0     0     0     1
       383.874145      368.356559      495.092163     1     0     0     0     2
       388.359605      422.156611      157.951140     1     0     0     0     5
       468.698781      136.259149      177.656570     1     0     0     0     4
       487.971147      393.462195      395.904969     1     0     0     0     4
       189.254889      366.933689      391.115402     1     0     0     0     3
       128.335440      365.079934      221.867876     1     0     0     0     7
       201.163236      464.223416      150.538841     1     0     0     0     2
       395.130080      305.511971      308.183991     1     0     0     0     3
       262.378319      390.823795       49.776291     1     0     0     0     4
       341.426757      301.044650      387.482641     1     0     0     0     7
       301.054992      308.469539      368.541096     1     0     0     0     5
       446.480783      467.596221      453.687500     1     0     0     0     4
       104.515228       20.437011      105.377234     1     0     0     0     1
       190.405047      170.840608      436.231064     1     0     0     0     3
       226.833631      296.317252      169.930043     1     0     0     0     3
       353.208294      325.455044      302.066354     1     0     0     0     4
       494.563672      286.157798      349.180730     1     0     0     0     4
        69.781739      335.776818        9.997268     1     0     0     0     2
       329.300231      255.417576      332.795678     1     0     0     0     7
       110.971259      152.662132      185.258131     1     0     0     0     4
       447.633975      488.445938      280.570865     1     0     0     0     8
       282.649750       61.470029      304.553542     1     0     0     0     8
         5.541483      476.978603      379.851319     1     0     0     0     1
       430.619046       48.159539      195.215436     1     0     0     0     7
       175.989092      457.761890      476.493150     1     0     0     0     8
       231.130551      439.784968       56.586138     1     0     0     0     7
       406.596385      473.586000      202.214313     1     0     0     0     7
        40.453077      488.117426       26.216383     1     0     0     0     3
       439.915501      151.672423      111.319648     1     0     0     0     4
       112.519980      147.537262      279.781118     1     0     0     0     5
       418.662287      111.338884      317.092367     1     0     0     0     8
       407.053877      371.780905       60.487305     1     0     0     0     6
         2.274288      239.584291      223.642876     1     0     0     0     1
       205.293133      483.402900       59.529726     1     0     0     0     3
       307.294914      131.975259      267.048869     1     0     0     0     1
       105.112937       73.671726      358.126458     1     0     0     0     6
       216.207356      196.370206      451.181053     1     0     0     0     5
       421.928463      167.984357       72.837717     1     0     0     0     4
       171.727350      135.886790      387.370339     1     0     0     0     7
        95.376320      342.714467      335.529362     1     0     0     0     6
        84.150279       47.947775      451.871273     1     0     0     0     5
       486.249497      116.769533       92.776827     1     0     0     0     1
       159.373594      442.521894      343.539037     1     0     0     0     1
        47.104489       85.251964      171.957524     1     0     0     0     3
       410.991898      317.826660      125.456391     1     0     0     0     8
       157.581304      489.065935      388.728489     1     0     0     0     3
       408.720485      197.088634      422.301495     1     0     0     0     4
       481.851616      471.267779      476.360513     1     0     0     0     2
        39.410856      279.918211      373.557291     1     0     0     0     7
       339.997277      342.698244      411.068741     1     0     0     0     4
       270.265421      294.265785      381.429219     1     0     0     0     8
       341.128609      375.383261      112.531897     1     0     0     0     4
         6.499679      338.940473      227.045391     1     0     0     0     3
       325.889320      350.559531      475.240737     1     0     0     0     7
       323.903479      248.241186       18.548098     1     0     0     0     6
       214.464567      196.976795      121.309137     1     0     0     0     8
       241.915853      490.526631      205.083590     1     0     0     0     3
       170.188108      228.915066      449.469536     1     0     0     0     1
       207.560862      409.435913      299.545441     1     0     0     0     1
       479.234490      470.713885      360.866237     1     0     0     0     5
        99.741672      101.133788      397.535839     1     0     0     0     3
       351.955257      415.422168      478.834842     1     0     0     0     8
        24.954141       80.694773       46.716020     1     0     0     0     2
       337.359196      312.415345       73.266288     1     0     0     0     4
       268.542489      296.314169      155.292138     1     0     0     0     5
        77.012209      247.323753      222.049306     1     0     0     0     5
       452.569994      406.342562      178.990471     1     0     0     0     2
       189.893876       34.546670      264.338240     1     0     0     0     4
       290.892248       42.284738      221.288098     1     0     0     0     8
       467.147545      437.030426      202.237563     1     0     0     0     8
       269.549154       86.481912       29.360773     1     0     0     0     6
       132.655539      152.329028      108.598894     1     0     0     0     8
       265.465260        5.396660      100.670504     1     0     0     0     3
       290.884165      386.162650       56.969479     1     0     0     0     6
       193.066362      305.238871      404.600377     1     0     0     0     8
       244.136159      289.832693      291.422734     1     0     0     0     6
       443.452254      375.690827        7.787344     1     0     0     0     8
       351.415471      400.009318      217.574902     1     0     0     0     1
        90.022708      424.946864      443.661405     1     0     0     0     8
       222.976681      421.969016        5.466586     1     0     0     0     3
       312.672577      102.564267       95.386133     1     0     0     0     6
       275.118832      475.229852      271.551021     1     0     0     0     4
       257.941262      279.610956      392.565077     1     0     0     0     8
       268.694806      312.575160      326.080900     1     0     0     0     8
       325.744383      456.019089      256.724494     1     0     0     0     7
       278.237520       97.860771      425.191576     1     0     0     0     7
       267.368316      151.284180      167.985809     1     0     0     0     3
        10.263630       19.260060      226.543131     1     0     0     0     3
       372.500982      451.608099       68.248270     1     0     0     0     1
       415.717286      233.996283      336.377077     1     0     0     0     2
        81.347843       85.485782      305.199469     1     0     0     0     6
         3.337697      480.799483      375.966048     1     0     0     0     7
       411.284009      200.022971      342.219199     1     0     0     0     5
        25.282691      488.844916      364.880584     1     0     0     0     2
       320.747461      399.330619      282.264979     1     0     0     0     5
       180.235242      470.595618      221.656797     1     0     0     0     7
        68.098498      397.425731      156.342446     1     0     0     0     8
        67.876871      452.627845      173.513011     1     0     0     0     7
       413.821791      423.135887      375.532073     1     0     0     0     4
       418.280279      307.720474        9.845077     1     0     0     0     5
       153.032394      433.626701      477.882805     1     0     0     0     6
        97.305377      309.832133      232.882495     1     0     0     0     3
       198.773344      489.009412      371.725743     1     0     0     0     1
       211.348540      474.705179      222.169511     1     0     0     0     1
        25.933200      392.459643       63.978830     1     0     0     0     6
       274.537411       86.907699      257.831760     1     0     0     0     4
       346.155880       89.374526      261.320832     3     0     0     0     6
        62.719930      478.027970      275.551028     1     0     0     0     8
        19.568366      268.072830       64.032820     1     0     0     0     5
       329.955314      218.228963      197.842482     1     0     0     0     4
       102.371331      488.256211      212.301986     1     0     0     0     8
       112.948271      123.519555      255.029069     1     0     0     0     5
       278.137697       34.425997      163.116012     1     0     0     0     1
       168.889044       55.541524      240.434545     1     0     0     0     7
       175.885937      481.948845      322.739148     1     0     0     0     2
       331.521386       50.537456      442.398003     1     0     0     0     8
        72.398811       74.455278      127.809912     1     0     0     0     8
       187.210778      468.536813      294.312692     1     0     0     0     7
       200.435973      347.799660        5.936694     1     0     0     0     8
        64.516081      376.830243      452.024227     1     0     0     0     8
         0.628348       67.627815      282.734043     1     0     0     0     5
       303.964160      176.182916      347.113487     1     0     0     0     4
       464.433622      335.186522      243.184852     1     0     0     0     1
       138.524716      122.628367      444.935457     1     0     0     0     1
       438.528836      285.176700      105.943764     1     0     0     0     7
       187.079927      436.770183      310.170283     1     0     0     0     4
       118.208951      329.694118      290.565620     1     0     0     0     1
       451.997264      443.426315       20.563510     1     0     0     0     5
       299.996399      364.798098      407.159405     1     0     0     0     7
       183.562221       48.845659      405.539836     1     0     0     0     5
         5.681182      134.920271      140.242351     1     0     0     0     6
        56.036015      215.301694      171.592167     1     0     0     0     8
       242.631812      414.786455      368.077845     1     0     0     0     6
       368.262628        3.644147      150.235106     1     0     0     0     4
       373.247555      286.612610      353.620299     1     0     0     0     1
       432.319688      393.027892      453.489697     1     0     0     0     7
       191.440980      116.705032      203.072230     1     0     0     0     3
       206.504200      472.906085       34.765410     1     0     0     0     1
       249.361597      275.951115      253.632896     1     0     0     0     6
       244.918765       11.843724      216.202758     1     0     0     0     7
       364.797282      339.238802      414.750491     1     0     0     0     7
       166.008915      336.952798      150.760544     1     0     0     0     3
       465.793045      356.963549      231.432596     1     0     0     0     2
       133.103186      339.275914      312.036541     1     0     0     0     1
        75.246707      148.329881      488.338747     1     0     0     0     4
       426.075811       35.264687      255.374556     1     0     0     0     4
       485.283254       18.079124      403.782922     1     0     0     0     6
       478.971208      165.560537        8.543939     1     0     0     0     6
       414.713074      271.928420      389.557214     1     0     0     0     2
        16.875278      155.408342      226.137013     1     0     0     0     2
       141.887013      331.891278      440.338125     1     0     0     0     4
       434.293576      388.172209      352.761594     1     0     0     0     3
       102.959032       62.157392      365.603555     1     0     0     0     3
       134.175225      297.921650      403.502198     1     0     0     0     1
       287.490218       15.086148      498.251540     1     0     0     0     1
        60.538071      249.151747      210.724256     1     0     0     0     3
       312.868231      368.469705      457.782248     1     0     0     0     8
       202.001700      229.317306      295.342385     1     0     0     0     3
       142.960679      400.574195      266.715812     1     0     0     0     1
       491.389733        8.099111       82.973857     1     0     0     0     8
         7.320431        3.398225      300.636585     1     0     0     0     3
       433.614201      247.940092       58.309968     1     0     0     0     7
       300.786025       12.809516      432.071275     1     0     0     0     4
       222.645239      454.925945      152.819458     1     0     0     0     4
       471.629774      163.158259      328.988907     1     0     0     0     7
       116.181409      214.442971      392.789965     1     0     0     0     7
       377.125442      266.119650      348.051530     1     0     0     0     7
       276.221159      235.856311      268.709984     1     0     0     0     7
       135.577265      217.653546      201.649419     1     0     0     0     1
       130.819338      139.453428       49.751686     1     0     0     0     5
       337.905994      487.592188      438.548640     1     0     0     0     4
        87.047143      131.727278      495.951234     1     0     0     0     8
        43.628055      105.099889      285.758525     1     0     0     0     2
       313.411730      136.314026      431.333765     1     0     0     0     4
       322.044883      246.426490      431.063375     1     0     0     0     2
       158.938828      186.623678      447.224025     1     0     0     0     7
       105.117018      314.825260      495.918223     1     0     0     0     7
         0.706884      185.048969      163.012090     1     0     0     0     2
       190.119072      174.424637      444.443654     1     0     0     0     4
       248.769079      256.888634       45.960701     1     0     0     0     2
       438.528466      117.743408      333.698113     1     0     0     0     3
       389.457147      310.401263      390.355108     1     0     0     0     7
       333.051032      237.335231      226.113019     1     0     0     0     4
       424.701899       18.955649      276.753570     1     0     0     0     6
        44.827902      413.660426       48.535076     1     0     0     0     3
       331.966025       94.953076      138.696574     1     0     0     0     3
       469.808134       46.725241        5.172775     1     0     0     0     2
       135.885438      168.463152      295.902164     1     0     0     0     2
       161.694872      446.287880      380.518419     1     0     0     0     7
       457.712783       31.657749      163.536517     1     0     0     0     6
       435.799591       16.167304       88.783955     1     0     0     0     6
       196.330339      226.962969      236.227328     1     0     0     0     6
       106.231926      104.277041      259.357678     1     0     0     0     7
       311.298657      143.658684      124.496049     1     0     0     0     3
       340.458963      283.663957       16.807020     1     0     0     0     2
       228.363211       99.966841      367.708212     1     0     0     0     7
       394.036266      142.367855      207.878483     1     0     0     0     2
        17.390166      374.818183      102.529166     1     0     0     0     1
       391.944920      209.308736       48.683159     1     0     0     0     8
        76.072584      488.260167      479.477902     1     0     0     0     3
       423.680764      344.938832       66.550433     1     0     0     0     1
       234.682439      459.852356      121.310729     1     0     0     0     3
       221.834555       43.673339      361.050609     1     0     0     0     4
       242.033364      346.602546      120.364077     1     0     0     0     4
       323.395570      172.735081      102.415571     1     0     0     0     4
       215.388632      102.976460      496.694202     1     0     0     0     3
       103.717136      484.584403      365.463740     1     0     0     0     1
        58.470865       94.718265      236.548787     1     0     0     0     8
       453.780151      301.694734      189.259162     1     0     0     0     1
       471.740148       49.425896      311.536105     1     0     0     0     5
       475.549330      246.630497      179.378127     1     0     0     0     4
       496.475113      495.856898      191.116875     1     0     0     0     8
       215.581720      483.580290      171.221022     1     0     0     0     4
       104.961619      429.387978      382.308182     1     0     0     0     1
       262.612179      278.591081       31.455602     1     0     0     0     6
       363.509921      185.079237      480.002013     1     0     0     0     4
       318.864089      446.991778      383.746679     1     0     0     0     1
       336.856917      370.595829       82.268778     1     0     0     0     6
       163.809013      261.494222        5.270736     1     0     0     0     4
        76.039541      350.895483      411.272962     1     0     0     0     2
       319.830027       97.549688       23.748509     1     0     0     0     5
        87.698642      134.057946        1.327037     1     0     0     0     5
       339.772064      106.568309      467.259105     1     0     0     0     6
       387.674773      227.932796      337.318054     1     0     0     0     7
         4.724714      103.011357       19.390684     1     0     0     0     1
        20.211135      410.377097      367.597993     1     0     0     0     4
       496.219669      251.069425      436.434204     1     0     0     0     8
       397.903855      211.856521      283.513171     1     0     0     0     7
       475.856433      130.741536      483.280286     1     0     0     0     2
       297.634445      164.404904      217.825103     1     0     0     0     6
       217.963238      202.983429      107.678917     1     0     0     0     2
       104.359200      493.566191      294.850807     1     0     0     0     3
       216.505550      266.723928       52.245897     1     0     0     0     7
       446.684793      103.064799      493.597095     1     0     0     0     8
        89.810406      179.318846      167.625109     1     0     0     0     6
       253.866316      496.224048       95.607489     1     0     0     0     6
       465.026622      258.355405      375.403444     1     0     0     0     2
        19.907260      273.678164      412.287352     1     0     0     0     8
       281.711567      391.688717      390.843563     1     0     0     0     4
       406.151128      375.056872      190.323860     1     0     0     0     4
       247.169838      152.849728       30.339753     1     0     0     0     8
       419.744631        4.153303      346.863379     1     0     0     0     5
       260.129115        7.858862      436.553794     1     0     0     0     5
       151.633680       14.865109      487.964862     1     0     0     0     7
       397.449464       54.182341      183.952046     1     0     0     0     6
        72.353314        1.661801       48.353367     1     0     0     0     4
       112.146853      235.053206      431.260514     1     0     0     0     2
       415.922809      177.513843       16.251783     1     0     0     0     2
       263.280140      163.195912      438.171381     1     0     0     0     1
       353.010414      296.414031      377.679725     1     0     0     0     1
       104.828352      271.589519      175.649170     1     0     0     0     4
       422.081116      198.064644       56.330721     1     0     0     0     3
        41.805818      244.708717      351.965147     1     0     0     0     1
       285.511982      292.280625       21.141017     1     0     0     0     3
       346.234300       78.430511      107.122262     1     0     0     0     7
        72.290793      402.471304      392.822363     1     0     0     0     2
       384.505981      179.162471       66.590885     1     0     0     0     3
       440.424782      108.226111      176.800599     1     0     0     0     7
       450.575636      462.914644       80.956152     1     0     0     0     3
       205.407727       60.508840      446.626708     1     0     0     0     4
       242.524958      242.675636      401.422509     1     0     0     0     2
       369.101631      321.022604       90.720651     1     0     0     0     2
       460.954338      342.806598      178.063782     1     0     0     0     6
       264.959667      447.339082      313.985316     1     0     0     0     2
       267.260056       74.861769      275.690112     1     0     0     0     5
        87.514492       88.314504      206.940669     1     0     0     0     7
       416.336991      394.966467      111.836158     1     0     0     0     1
       300.107450      181.485479      206.805439     1     0     0     0     2
        93.331114      320.680416      123.637453     1     0     0     0     5
       420.555410      293.775739      147.650702     1     0     0     0     8
       213.828016      150.972152       57.656196     1     0     0     0     8
        54.145804       14.316674      138.729078     1     0     0     0     1
       135.055334      398.746134      257.505950     1     0     0     0     1
       281.948875      231.455019      134.398498     1     0     0     0     6
       161.966418      121.535117      108.086345     1     0     0     0     7
       215.859682       64.747788      398.916035     1     0     0     0     7
         9.297572      473.633312      405.708372     1     0     0     0     4
         3.453653      128.819593      147.193738     1     0     0     0     7
       472.646819      292.351045      266.531498     1     0     0     0     3
       370.333180      371.066634      401.569520     1     0     0     0     7
       125.202314      174.436407       96.042593     1     0     0     0     1
       249.992289      382.940926      425.717555     1     0     0     0     4
        37.330011      164.140347      427.849622     1     0     0     0     2
       376.126279       92.456068      249.145289     1     0     0     0     2
       380.137035      269.758801       18.896143     1     0     0     0     7
       406.741308      439.620757      314.113060     1     0     0     0     1