ITEM: TIMESTEP
0
ITEM: NUMBER OF ATOMS
        7879
ITEM: BOX BOUNDS pp pp pp
  0.0000000E+00   500.000000000000     
  0.0000000E+00   500.000000000000     
  0.0000000E+00   500.000000000000     
ITEM: ATOMS x y z nV nH f3 f4 orient
       140.351082       17.864494      239.530692     1     0     0     0     7
       240.331490      417.151486      243.658559     1     0     0     0     7
       426.966313      371.965538      131.093456     1     0     0     0     3
       201.386497       11.908701      261.044073     1     0     0     0     4
        89.548952       91.910383      197.342598     1     0     0     0     5
       411.988890      406.781967      278.168876     1     0     0     0     3
       359.591052      309.230366      170.790803     1     0     0     0     5
       305.882353       57.707809      464.198054     1     0     0     0     7
       495.839036      342.665080      489.259347     1     0     0     0     1
       103.543921       69.122702       25.510360     1     0     0     0     8
       278.905628      151.481843      259.000734     1     0     0     0     6
        49.903081      378.239806      408.299958     1     0     0     0     3
       202.892690        5.609582      290.521409     1     0     0     0     4
       131.179649      317.174218       67.453577     1     0     0     0     3
       183.133074      210.491996      446.933521     1     0     0     0     5
         4.696937      442.127247      464.969295     1     0     0     0     4
       312.614508       12.044102      370.646659     1     0     0     0     1
        88.613723      365.257320      490.750270     1     0     0     0     5
       290.238433      442.157295      123.048213     1     0     0     0     4
        54.835952       90.238905      433.576177     1     0     0     0     2
       100.337854      475.795775      146.304704     1     0     0     0     3
       229.987648        0.494859      498.493950     1     0     0     0     3
       292.303849      296.191027      382.942878     1     0     0     0     7
       402.212492      316.364859      471.847539     1     0     0     0     7
       320.042249      444.191396      350.963424     1     0     0     0     6
       288.178143       20.995053      432.209685     1     0     0     0     6
       438.329811      294.034806      317.372669     1     0     0     0     2
       176.216959      378.841531      298.900486     1     0     0     0     6
       106.944279      206.241528      395.783970     1     0     0     0     6
       173.157162      228.325446      390.950028     1     0     0     0     2
       292.230072      258.078705      256.841097     1     0     0     0     5
        60.199199      415.620489      388.817858     1     0     0     0     8
       270.610620       81.085453       15.838339     1     0     0     0     2
         0.674223      298.721607      460.380822     1     0     0     0     3
       202.472726      439.303826      110.067709     1     0     0     0     6
       162.577123        3.862430       27.532698     1     0     0     0     7
       319.641150      221.284661       59.464577     1     0     0     0     5
       166.417187      498.799100      199.269839     1     0     0     0     7
       415.315260      167.399270      210.238520     1     0     0     0     2
       343.586795      377.020811      470.661889     1     0     0     0     8
        90.491094      206.017960       12.874858     1     0     0     0     1
       292.630938      257.268959      290.765419     1     0     0     0     5
       110.946240        0.066271       52.627562     1     0     0     0     7
       257.286004       59.478756      175.342348     1     0     0     0     4
       334.827274      337.386785      190.437360     1     0     0     0     5
       420.764944      136.224420      419.723113     1     0     0     0     7
        36.919220      263.653735      421.567013     1     0     0     0     2
       103.510110       95.789161      435.408007     1     0     0     0     7
         8.682902      356.688666      325.857101     1     0     0     0     2
        90.483355       81.955735       53.979449     1     0     0     0     3
       233.930041      116.325727      282.139476     1     0     0     0     2
       444.137792      314.328161      141.165169     1     0     0     0     6
         6.218533       68.197381      447.238008     1     0     0     0     2
       497.621803      171.393036      201.059988     1     0     0     0     6
       436.148192      277.973508      148.159971     1     0     0     0     2
       278.727380      169.797038      337.299647     1     0     0     0     7
        84.877474      154.791345      447.974096     1     0     0     0     3
       119.653192       23.781603      484.659449     1     0     0     0     4
       173.805225      256.114812      242.817073     1     0     0     0     1
       497.417629      298.397807       50.046331     1     0     0     0     6
       349.618445       62.221108       85.196811     1     0     0     0     2
        84.152043        2.415860      350.618032     1     0     0     0     3
       347.044718      156.417913       85.389632     1     0     0     0     5
       434.825086      417.452504       72.651426     1     0     0     0     5
       340.118890      324.250158      310.579088     1     0     0     0     8
       469.038958      400.518161      415.566357     1     0     0     0     3
       285.078884       14.793964       58.551458     1     0     0     0     2
       376.577785      433.780763      437.282058     1     0     0     0     5
       131.655859      412.418750      374.261009     1     0     0     0     5
       254.294626      280.340861      324.756543     1     0     0     0     4
       349.613821      193.550438      400.232632     1     0     0     0     6
       344.448751      161.381353      399.302796     1     0     0     0     6
       298.228297      329.763308      358.421685     1     0     0     0     4
       367.244778      339.371518      332.686590     1     0     0     0     8
       461.671919       62.395500       75.624616     1     0     0     0     4
       330.325314      420.637334      491.794266     1     0     0     0     8
       414.911729      308.131687       41.680872     1     0     0     0     2
       358.206563      460.760949      241.633343     1     0     0     0     6
       378.332145      469.350362      302.060327     1     0     0     0     8
       279.254186      493.910580      387.462078     1     0     0     0     3
       105.022543       49.590817      102.685958     1     0     0     0     4
        62.567882      447.644381      207.370283     1     0     0     0     8
       473.397164      200.017669      446.253447     1     0     0     0     4
       196.044281      234.429186      380.897886     1     0     0     0     8
       119.764706      210.542243      188.590005     1     0     0     0     3
       347.721121      140.927357       37.822171     1     0     0     0     7
       387.039295      374.686859      495.092163     1     0     0     0     1
       386.777030      423.739186      153.203415     1     0     0     0     4
       470.281356      128.346275      179.239145     1     0     0     0     8
       492.718871      391.879620      394.322394     1     0     0     0     5
       182.924590      373.263988      397.445702     1     0     0     0     6
       129.918015      363.497359      226.615601     1     0     0     0     6
       204.328386      464.223416      153.703991     1     0     0     0     3
       399.877805      313.424845      306.601416     1     0     0     0     1
       262.378319      390.823795       46.611141     1     0     0     0     3
       339.844182      299.462075      385.900066     1     0     0     0     5
       297.889843      311.634688      365.375946     1     0     0     0     4
       440.150483      467.596221      450.522350     1     0     0     0     2
       102.932653       18.854436      106.959809     1     0     0     0     3
       185.657323      172.423183      425.153041     1     0     0     0     2
       220.503332      302.647552      169.930043     1     0     0     0     6
       446.570029      440.502291       80.512859     1     0     0     0     8
         2.476546      281.410073      360.258753     1     0     0     0     6
        15.241451      239.217687      368.499019     1     0     0     0     1
       329.300231      258.582726      332.795678     1     0     0     0     2
       101.475810      162.157581      191.588430     1     0     0     0     7
       452.381700      493.193662      275.823141     1     0     0     0     8
       282.649750       61.470029      295.058093     1     0     0     0     3
        11.871782      476.978603      373.521019     1     0     0     0     5
       440.114495       54.489838      201.545735     1     0     0     0     3
       171.241368      453.014165      474.910575     1     0     0     0     5
       226.382826      428.706944       55.003564     1     0     0     0     7
       409.761535      476.751149      208.544612     1     0     0     0     1
        34.122778      484.952276       26.216383     1     0     0     0     7
       441.498075      153.254997      109.737073     1     0     0     0     4
       110.937405      145.954687      275.033394     1     0     0     0     8
       423.410011      119.251758      312.344642     1     0     0     0     6
       408.636452      376.528630       58.904730     1     0     0     0     8
         5.439438      245.914590      220.477727     1     0     0     0     6
       200.545408      488.150625       57.947151     1     0     0     0     8
       305.712339      133.557834      265.466294     1     0     0     0     8
       103.530362       75.254301      362.874182     1     0     0     0     3
       214.624781      201.117930      452.763628     1     0     0     0     6
       421.928463      164.819208       79.168016     1     0     0     0     3
       170.144775      134.304215      385.787764     1     0     0     0     7
       101.706620      342.714467      332.364213     1     0     0     0     1
        80.985129       47.947775      451.871273     1     0     0     0     4
       486.249497      116.769533       86.446528     1     0     0     0     5
       164.121319      444.104469      341.956462     1     0     0     0     8
        42.356765       83.669389      173.540099     1     0     0     0     2
       414.157047      320.991810      122.291241     1     0     0     0     5
       165.494179      493.813659      393.476213     1     0     0     0     1
       407.137910      208.166657      427.049219     1     0     0     0     6
       486.599340      482.345803      484.273387     1     0     0     0     1
        40.993430      278.335636      375.139866     1     0     0     0     3
       336.832128      349.028543      404.738442     1     0     0     0     8
       270.265421      291.100636      390.924668     1     0     0     0     5
       347.458909      381.713560      115.697047     1     0     0     0     8
         4.917104      337.357898      234.958265     1     0     0     0     7
       324.306745      348.976956      473.658162     1     0     0     0     6
       322.320904      256.154060       20.130673     1     0     0     0     6
       216.047142      201.724520      116.561412     1     0     0     0     5
       246.663578      488.944056      206.666165     1     0     0     0     3
       174.935833      233.662791      454.217260     1     0     0     0     4
       199.647988      407.853338      297.962866     1     0     0     0     5
       480.817065      472.296460      368.779112     1     0     0     0     6
       102.906822      101.133788      400.700988     1     0     0     0     5
       353.537832      410.674443      477.252268     1     0     0     0     3
        26.536716       88.607647       45.133445     1     0     0     0     1
       348.437220      317.163070       71.683713     1     0     0     0     1
       270.125064      301.061893      150.544414     1     0     0     0     4
        78.594784      245.741179      223.631881     1     0     0     0     3
       454.152569      401.594837      177.407896     1     0     0     0     4
       188.311301       42.459544      265.920815     1     0     0     0     5
       286.144523       37.537014      222.870673     1     0     0     0     6
       465.564971      435.447852      203.820138     1     0     0     0     1
       271.131729       84.899337       30.943348     1     0     0     0     3
       134.238114      157.076752      110.181469     1     0     0     0     6
       263.882685       13.309534      105.418228     1     0     0     0     6
       295.631889      390.910375       64.882353     1     0     0     0     5
       193.066362      305.238871      404.600377     1     0     0     0     4
       244.136159      289.832693      291.422734     1     0     0     0     5
       440.287105      369.360528        1.457045     1     0     0     0     6
       354.580620      390.513869      214.409752     1     0     0     0     7
        88.440133      426.529438      451.574279     1     0     0     0     1
       219.811531      425.134165        2.301437     1     0     0     0     4
       456.284236      437.555899       87.061916     1     0     0     0     1
       284.614281      468.899553      271.551021     1     0     0     0     5
       265.854136      281.193531      394.147652     1     0     0     0     5
       268.694806      312.575160      329.246050     1     0     0     0     1
       324.161808      451.271365      267.802517     1     0     0     0     1
       281.402670       91.530472      422.026427     1     0     0     0     5
       270.533466      154.449330      164.820659     1     0     0     0     8
        10.263630       16.094911      220.212831     1     0     0     0     3
       372.500982      457.938398       68.248270     1     0     0     0     1
        64.310417      431.561754        9.420454     1     0     0     0     7
        81.347843       82.320633      298.869169     1     0     0     0     3
        12.833146      483.964632      379.131198     1     0     0     0     7
       409.701434      204.770696      346.966923     1     0     0     0     1
        28.447841      488.844916      361.715434     1     0     0     0     5
       319.164886      400.913194      283.847554     1     0     0     0     8
       181.817817      469.013044      223.239372     1     0     0     0     3
        61.768199      391.095431      162.672746     1     0     0     0     8
        59.963997      451.045270      175.095586     1     0     0     0     7
       413.821791      423.135887      375.532073     1     0     0     0     3
       413.532554      312.468198        8.262503     1     0     0     0     3
        92.127993      299.748846      230.672726     1     0     0     0     5
        95.722802      311.414707      228.134771     1     0     0     0     8
       194.025620      490.591987      373.308318     1     0     0     0     7
       206.600815      473.122604      220.586936     1     0     0     0     4
        32.263499      392.459643       63.978830     1     0     0     0     5
       274.537411       90.072849      251.501460     1     0     0     0     2
       103.925527       85.446371      444.524014     1     0     0     0     8
        59.554780      481.193120      272.385879     1     0     0     0     8
        16.403216      258.577381       60.867670     1     0     0     0     5
       334.703039      219.811537      193.094757     1     0     0     0     5
       100.788756      489.838786      210.719411     1     0     0     0     3
       109.783122      120.354405      255.029069     1     0     0     0     6
       281.302846       34.425997      169.446311     1     0     0     0     1
       170.471619       57.124099      242.017119     1     0     0     0     3
       194.531913      230.881450      121.710023     1     0     0     0     2
       325.191087       50.537456      442.398003     1     0     0     0     3
        80.311685       66.542404      123.062188     1     0     0     0     3
       187.210778      455.876215      294.312692     1     0     0     0     5
       202.018548      343.051935        1.188970     1     0     0     0     4
        72.428955      372.082518      447.276503     1     0     0     0     8
       497.463198       70.792964      279.568893     1     0     0     0     8
       305.546735      168.270042      345.530912     1     0     0     0     2
       416.639963        9.176349        1.627812     1     0     0     0     6
       144.855016      122.628367      451.265757     1     0     0     0     3
       435.363686      285.176700      105.943764     1     0     0     0     2
       187.079927      433.605033      316.500582     1     0     0     0     6
       108.713502      329.694118      290.565620     1     0     0     0     2
       451.997264      443.426315       23.728660     1     0     0     0     1
       299.996399      364.798098      413.489704     1     0     0     0     3
       177.231922       52.010808      411.870135     1     0     0     0     5
         8.846332      131.755122      137.077202     1     0     0     0     2
        56.036015      218.466844      168.427018     1     0     0     0     4
       241.049237      413.203880      372.825569     1     0     0     0     3
       368.262628        0.478997      153.400256     1     0     0     0     3
       374.830129      288.195185      355.202873     1     0     0     0     1
       435.484838      386.697593      456.654847     1     0     0     0     5
       191.440980      113.539882      199.907081     1     0     0     0     5
       206.504200      472.906085       28.435111     1     0     0     0     4
       247.779022      274.368540      248.885172     1     0     0     0     4
       237.005891       10.261149      217.785333     1     0     0     0     7
       360.049558      340.821377      410.002766     1     0     0     0     4
       166.008915      333.787649      153.925693     1     0     0     0     2
       470.540769      358.546124      236.180321     1     0     0     0     5
       134.685761      334.528190      313.619116     1     0     0     0     3
        79.994431      149.912456      483.591022     1     0     0     0     5
       426.075811       35.264687      249.044257     1     0     0     0     5
       485.283254       24.409423      397.452623     1     0     0     0     4
       475.806059      165.560537        5.378789     1     0     0     0     2
       416.295649      273.510995      397.470088     1     0     0     0     6
        16.875278      155.408342      229.302163     1     0     0     0     7
       143.469588      336.639003      435.590401     1     0     0     0     8
       437.458725      391.337359      352.761594     1     0     0     0     8
        98.211308       60.574817      367.186129     1     0     0     0     7
       132.592650      296.339075      401.919623     1     0     0     0     4
       285.907644       16.668723      490.338666     1     0     0     0     4
        65.285795      247.569172      212.306831     1     0     0     0     8
       309.703081      368.469705      464.112548     1     0     0     0     6
       203.584274      224.569582      296.924960     1     0     0     0     2
       142.960679      397.409046      273.046112     1     0     0     0     4
       488.224584       14.429411       89.304156     1     0     0     0     1
        10.485581        9.728524      310.132034     1     0     0     0     1
       433.282618      253.460491       64.210309     1     0     0     0     5
       302.368599       17.557240      430.488700     1     0     0     0     1
       217.897514      450.178220      154.402033     1     0     0     0     2
       473.212349      158.410535      324.241183     1     0     0     0     4
       113.016260      214.442971      392.789965     1     0     0     0     1
       375.542868      264.537075      352.799255     1     0     0     0     6
       277.803734      227.943436      267.127409     1     0     0     0     3
       129.246966      217.653546      198.484269     1     0     0     0     5
       126.071613      137.870853       48.169111     1     0     0     0     2
       337.905994      490.757337      438.548640     1     0     0     0     1
        83.881993      131.727278      489.620934     1     0     0     0     4
        25.393564      189.858608      148.091561     1     0     0     0     8
       314.994305      134.731451      436.081489     1     0     0     0     1
       322.044883      243.261340      427.898226     1     0     0     0     6
       171.599427      192.953977      450.389175     1     0     0     0     1
       100.369293      316.407835      484.840199     1     0     0     0     8
       499.124309      177.136095      161.429515     1     0     0     0     5
       193.284221      180.754936      447.608804     1     0     0     0     8
       244.021354      248.975760       44.378126     1     0     0     0     4
       441.693615      111.413109      333.698113     1     0     0     0     2
       394.204871      311.983837      391.937683     1     0     0     0     1
       333.051032      227.839782      226.113019     1     0     0     0     3
       421.536750       22.120798      279.918720     1     0     0     0     6
        41.662753      419.990725       48.535076     1     0     0     0     4
       330.383450       96.535651      152.939747     1     0     0     0     1
       476.138433       46.725241        5.172775     1     0     0     0     8
       139.050588      165.298003      292.737014     1     0     0     0     3
       166.442596      454.200754      369.440396     1     0     0     0     5
       460.877933       25.327450      157.206218     1     0     0     0     2
       435.799591       16.167304       91.949105     1     0     0     0     1
       191.582615      225.380394      237.809902     1     0     0     0     2
       110.979650      109.024765      254.609953     1     0     0     0     8
       308.133507      143.658684      127.661199     1     0     0     0     6
       338.876388      275.751083       21.554744     1     0     0     0     6
       225.198062      106.297140      370.873361     1     0     0     0     4
       395.618841      134.454981      209.461058     1     0     0     0     3
        18.972740      366.905309      110.442040     1     0     0     0     7
       401.440369      212.473886       51.848309     1     0     0     0     8
        76.072584      488.260167      485.808201     1     0     0     0     2
       422.098190      349.686557       68.133008     1     0     0     0     3
       234.682439      469.347805      127.641028     1     0     0     0     3
       228.164854       46.838489      357.885460     1     0     0     0     8
       246.781088      345.019971      118.781503     1     0     0     0     8
       321.812995      174.317656      103.998146     1     0     0     0     5
       209.058333       96.646161      493.529053     1     0     0     0     6
       103.717136      484.584403      362.298590     1     0     0     0     2
        61.636015       94.718265      242.879086     1     0     0     0     7
       458.527875      296.947010      187.676587     1     0     0     0     1
       468.574998       49.425896      311.536105     1     0     0     0     2
       480.297055      245.047922      190.456151     1     0     0     0     3
         1.222838      487.944023      192.699450     1     0     0     0     4
       215.581720      483.580290      168.055872     1     0     0     0     8
       101.796469      432.553127      385.473331     1     0     0     0     6
       265.777328      278.591081       31.455602     1     0     0     0     4
       368.257645      183.496662      468.923989     1     0     0     0     5
       318.864089      440.661479      380.581529     1     0     0     0     7
        12.828569      440.763430      476.266077     1     0     0     0     1
       157.478713      267.824522        5.270736     1     0     0     0     6
        69.709242      350.895483      408.107812     1     0     0     0     4
       316.664878      100.714838       20.583359     1     0     0     0     2
        90.863791      130.892796        1.327037     1     0     0     0     4
       339.772064      109.733459      467.259105     1     0     0     0     2
       382.927049      232.680520      326.240030     1     0     0     0     7
       498.394415       99.846208       19.390684     1     0     0     0     6
        23.376285      410.377097      370.763142     1     0     0     0     3
       491.471945      246.321701      438.016779     1     0     0     0     2
       396.321280      210.273946      278.765446     1     0     0     0     5
       477.439007      129.158961      484.862861     1     0     0     0     3
       307.129894      161.239755      211.494804     1     0     0     0     5
       211.632939      209.313729      114.009216     1     0     0     0     6
       102.776625      485.653317      299.598532     1     0     0     0     4
       208.592676      274.636802       56.993622     1     0     0     0     5
       443.519643      103.064799      487.266795     1     0     0     0     6
        85.062682      177.736272      169.207684     1     0     0     0     2
       260.196615      499.389198       92.442340     1     0     0     0     8
       461.861472      258.355405      372.238294     1     0     0     0     1
        23.072410      273.678164      409.122202     1     0     0     0     8
       280.128992      383.775843      389.260988     1     0     0     0     5
       406.151128      368.726573      196.654160     1     0     0     0     7
       250.334987      156.014877       27.174603     1     0     0     0     3
       422.909781        7.318453      346.863379     1     0     0     0     3
       256.963965       11.024011      439.718944     1     0     0     0     4
       150.051105       16.447684      492.712587     1     0     0     0     1
       399.032039       52.599766      179.204321     1     0     0     0     2
        78.683613        7.992101       48.353367     1     0     0     0     8
       115.312002      238.218355      428.095364     1     0     0     0     8
       404.844785      182.261567       20.999507     1     0     0     0     6
       256.949841      163.195912      435.006232     1     0     0     0     2
       351.427839      307.492055      372.932000     1     0     0     0     6
       107.993502      271.589519      181.979469     1     0     0     0     4
       425.246265      198.064644       56.330721     1     0     0     0     5
        37.058093      243.126143      350.382572     1     0     0     0     4
       285.511982      289.115476       21.141017     1     0     0     0     4
       339.904001       84.760811      100.791963     1     0     0     0     4
        61.212769      404.053879      397.570088     1     0     0     0     1
       382.923406      183.910195       65.008310     1     0     0     0     2
       437.259633      111.391261      179.965749     1     0     0     0     4
       448.993061      458.166920       79.373577     1     0     0     0     2
       203.825152       62.091414      448.209282     1     0     0     0     8
       242.524958      249.005935      407.752808     1     0     0     0     6
       380.179655      319.440029       95.468375     1     0     0     0     8
       456.206613      341.224023      170.150907     1     0     0     0     2
       266.542241      448.921657      315.567890     1     0     0     0     4
       260.929757       68.531470      278.855262     1     0     0     0     2
        85.931917       83.566780      211.688393     1     0     0     0     3
       314.200931      247.718830       58.033892     1     0     0     0     3
       303.272600      181.485479      203.640290     1     0     0     0     2
        88.583390      328.593290      115.724579     1     0     0     0     8
       418.972835      295.358314      152.398426     1     0     0     0     6
       218.575740      152.554726       71.899369     1     0     0     0     3
        57.310954       20.646973      145.059378     1     0     0     0     1
       139.803058      406.659008      255.923375     1     0     0     0     8
       285.114025      234.620169      137.563648     1     0     0     0     3
       165.131567      121.535117      104.921196     1     0     0     0     8
       214.277107       63.165214      397.333460     1     0     0     0     4
         6.132422      473.633312      405.708372     1     0     0     0     5
       104.225631      139.629701      416.824554     1     0     0     0     5
       471.064244      293.933620      264.948923     1     0     0     0     4
       373.498330      367.901485      398.404371     1     0     0     0     6
       125.202314      174.436407       92.877443     1     0     0     0     6
       253.157439      379.775777      428.882704     1     0     0     0     4
        34.164861      160.975197      427.849622     1     0     0     0     2
       379.291428       89.290919      252.310439     1     0     0     0     7
       384.884760      274.506526       20.478717     1     0     0     0     6
       406.741308      430.125308      314.113060     1     0     0     0     3