ITEM: TIMESTEP
0
ITEM: NUMBER OF ATOMS
        7880
ITEM: BOX BOUNDS pp pp pp
  0.0000000E+00   500.000000000000     
  0.0000000E+00   500.000000000000     
  0.0000000E+00   500.000000000000     
ITEM: ATOMS x y z f1 f2 f3 f4 orient radius
        85.457681      173.092105       72.600660     1     0     0     0     8   1.560
       445.208148      377.875926      331.988962     1     0     0     0     1   1.560
       483.999923      215.926245      381.134560     1     0     0     0     7   1.560
        11.274746      337.682046      307.921129     1     0     0     0     3   1.560
       453.051992      184.529689      301.902774     1     0     0     0     3   1.560
       289.113435       57.450249      213.639856     1     0     0     0     3   1.560
       460.424619       66.759780      311.937478     1     0     0     0     7   1.560
       430.030904      459.406998      497.135078     1     0     0     0     6   1.560
       119.889037      269.305219       15.503685     1     0     0     0     8   1.560
       365.654112      273.614801      242.473372     1     0     0     0     4   1.560
       375.216484      420.580916      218.019253     1     0     0     0     5   1.560
        25.981628      365.794886        0.837599     1     0     0     0     3   1.560
       457.534828      458.695804      432.328702     1     0     0     0     1   1.560
       264.478271       72.794087      235.134355     1     0     0     0     6   1.560
        51.321440      282.738292       61.686302     1     0     0     0     8   1.560
       295.535263      337.405281       18.075467     1     0     0     0     8   1.560
       382.903047      221.057033      215.868117     1     0     0     0     8   1.560
        85.260210      491.042135       39.993263     1     0     0     0     7   1.560
       103.388032      238.127715      278.846215     1     0     0     0     2   1.560
        57.100118       83.411997       33.163499     1     0     0     0     8   1.560
       376.517991      390.344657      320.726119     1     0     0     0     6   1.560
        70.321059       98.445620       53.725016     1     0     0     0     5   1.560
        27.173790      467.404290      190.062879     1     0     0     0     8   1.560
        15.471814      101.611174      468.999989     1     0     0     0     7   1.560
       183.691692      147.496731      158.983530     1     0     0     0     2   1.560
       370.528308      278.512686      380.406628     1     0     0     0     7   1.560
       291.763269      237.023345      250.682360     1     0     0     0     3   1.560
       365.610209       29.531434      154.601121     1     0     0     0     7   1.560
       302.187843      133.307854      364.792946     1     0     0     0     5   1.560
        49.817093      395.654922       69.237362     1     0     0     0     5   1.560
       475.214758       37.193822      307.897637     1     0     0     0     6   1.560
       208.727523      159.151780      382.118434     1     0     0     0     7   1.560
       483.848024      183.894370      230.034085     1     0     0     0     7   1.560
       373.378816      493.780121      453.547698     1     0     0     0     1   1.560
        37.775458        9.256302      354.891286     1     0     0     0     3   1.560
       304.955736      360.898049      421.509793     1     0     0     0     2   1.560
       191.667855      160.801715      287.354964     1     0     0     0     2   1.560
       109.787168        2.034583      317.360863     1     0     0     0     4   1.560
       263.193581      448.147904      259.358473     1     0     0     0     8   1.560
       167.414369      105.276777      349.436633     1     0     0     0     7   1.560
       211.597390      400.304025      354.245434     1     0     0     0     2   1.560
       191.990767      247.806181      368.724725     1     0     0     0     7   1.560
       427.844135      429.472854      230.881301     1     0     0     0     5   1.560
       129.134062      416.412831       52.089839     1     0     0     0     5   1.560
       193.239047      456.041229      180.585867     1     0     0     0     5   1.560
       372.095571      324.079030      371.752045     1     0     0     0     8   1.560
       217.379411      243.678745      292.649687     1     0     0     0     6   1.560
       486.646709        5.845518        4.241476     1     0     0     0     3   1.560
       239.522377       99.339161      141.365965     1     0     0     0     2   1.560
        82.440748      440.670363      439.725691     1     0     0     0     8   1.560
       334.528865      335.741990       33.727005     1     0     0     0     6   1.560
       160.655952      454.120756      168.405770     1     0     0     0     8   1.560
       281.577873      495.122521      392.699988     1     0     0     0     6   1.560
       353.323362      108.409312      251.303803     1     0     0     0     1   1.560
       122.370602        0.685571      235.195522     1     0     0     0     5   1.560
       394.388124      411.891609      300.562339     1     0     0     0     3   1.560
       405.011077      448.322052      413.009239     1     0     0     0     4   1.560
       488.250914       34.439771      392.476038     1     0     0     0     8   1.560
       255.182251      195.655655      494.508154     1     0     0     0     1   1.560
       187.484610      339.219439      317.937716     1     0     0     0     2   1.560
       499.623552      441.835490      164.168568     1     0     0     0     8   1.560
       414.003576      491.794733      399.639964     1     0     0     0     7   1.560
       364.408677      435.744475      123.188038     1     0     0     0     7   1.560
       270.366014      419.061776      102.897764     1     0     0     0     1   1.560
       243.363021      164.065518      314.209360     1     0     0     0     8   1.560
       254.253696      430.804861      470.561670     1     0     0     0     7   1.560
       133.535459      130.059834      130.609854     1     0     0     0     3   1.560
       325.428923      262.377109       22.138033     1     0     0     0     5   1.560
       431.215905       95.852726       26.908678     1     0     0     0     4   1.560
       325.690309      163.452600      226.617641     1     0     0     0     8   1.560
       437.605125      263.718174      176.759436     1     0     0     0     4   1.560
       241.486061      320.000587      428.919099     1     0     0     0     5   1.560
       192.323395      219.927415      358.846482     1     0     0     0     3   1.560
       423.623527      206.556234       19.350196     1     0     0     0     5   1.560
        43.465453      184.684357      455.797181     1     0     0     0     5   1.560
        95.112822      127.980253      123.988584     1     0     0     0     7   1.560
       315.114014      397.996434       58.939116     1     0     0     0     6   1.560
       423.831324      121.653315       38.467452     1     0     0     0     2   1.560
       153.274869       21.996445       61.831526     1     0     0     0     5   1.560
       282.637600       93.891774      168.638453     1     0     0     0     4   1.560
        66.426311      310.261029       70.051200     1     0     0     0     7   1.560
       430.546438      399.043143       58.840387     1     0     0     0     1   1.560
       155.660560      173.707973      291.266660     1     0     0     0     7   1.560
       341.374687      328.671296      188.442001     1     0     0     0     2   1.560
       278.146491       75.155378      476.028776     1     0     0     0     3   1.560
       417.487887      286.169845       17.034518     1     0     0     0     2   1.560
       305.906735      443.590381      178.879144     1     0     0     0     5   1.560
       243.609197       78.534394      124.675398     1     0     0     0     3   1.560
       190.131415      191.980183      289.622522     1     0     0     0     4   1.560
       292.287343      433.862847        2.206292     1     0     0     0     2   1.560
       373.156268      143.855940      311.528311     1     0     0     0     3   1.560
       430.327201       93.332425       43.152756     1     0     0     0     3   1.560
       157.047970      388.582298      109.775835     1     0     0     0     4   1.560
       459.724421      153.564114      240.527794     1     0     0     0     7   1.560
       317.448241        1.462455      442.548982     1     0     0     0     5   1.560
        84.617917      196.738173      483.391265     1     0     0     0     3   1.560
       485.058440      407.752042      299.993823     1     0     0     0     1   1.560
       494.730251      376.617505      113.586990     1     0     0     0     3   1.560
       409.935242       15.283562       25.760060     1     0     0     0     5   1.560
       377.058359      367.553569       45.665340     1     0     0     0     5   1.560
       387.214520      476.434353        3.748514     1     0     0     0     7   1.560
        80.469218      169.591667      245.471547     1     0     0     0     3   1.560
       120.562250      493.272491      336.518109     1     0     0     0     4   1.560
        69.634689      458.010368      249.995710     1     0     0     0     8   1.560
        52.961922      406.175995      244.845334     1     0     0     0     8   1.560
       318.070619      160.946842      431.633726     1     0     0     0     2   1.560
       253.746160      215.471026      318.483230     1     0     0     0     5   1.560
       155.919823      113.149614       41.369087     1     0     0     0     8   1.560
       488.751836        5.769838      426.009098     1     0     0     0     6   1.560
       338.470250      482.664037      128.300133     1     0     0     0     8   1.560
       186.925025      368.562285      226.882768     1     0     0     0     4   1.560
       370.985057       68.514097      490.652546     1     0     0     0     2   1.560
       262.776792       13.411626      382.838213     1     0     0     0     3   1.560
       100.865683      177.511096       18.760812     1     0     0     0     5   1.560
        95.962900      225.995496      375.371627     1     0     0     0     3   1.560
       201.764446      456.394736      422.579713     1     0     0     0     2   1.560
       176.041406      172.354384      299.120098     1     0     0     0     5   1.560
       364.729131      361.177227       15.645569     1     0     0     0     8   1.560
       469.935242      102.597748       46.910066     1     0     0     0     2   1.560
       233.332600      497.402388       38.784034     1     0     0     0     6   1.560
       154.096219      240.323311      400.765565     1     0     0     0     1   1.560
       393.356218      304.670672      327.594888     1     0     0     0     3   1.560
        84.617388       65.466270       16.530077     1     0     0     0     6   1.560
        69.050469      151.155016      111.912379     1     0     0     0     7   1.560
       482.300681       37.970112      272.768727     1     0     0     0     4   1.560
       173.260848      432.931325      442.691748     1     0     0     0     6   1.560
        91.938582      353.766720      103.722186     1     0     0     0     4   1.560
       286.353698       41.680299      177.938346     1     0     0     0     1   1.560
       440.897765      435.455619      319.120271     1     0     0     0     2   1.560
       155.604966      440.568125      420.150933     1     0     0     0     4   1.560
       181.152137      296.863061      489.993209     1     0     0     0     5   1.560
       293.096909      177.388131       21.442652     1     0     0     0     5   1.560
       277.567594      401.942416      147.297102     1     0     0     0     7   1.560
       114.971974      168.259857       25.058608     1     0     0     0     1   1.560
       489.631358      426.874840      392.163928     1     0     0     0     1   1.560
       241.831627      215.329109      407.900880     1     0     0     0     2   1.560
       225.039159      398.545609      138.666451     1     0     0     0     6   1.560
       144.480279       71.227433        9.715946     1     0     0     0     6   1.560
       205.959101      302.519649      194.279817     1     0     0     0     2   1.560
       337.923861       70.794497      418.378803     1     0     0     0     7   1.560
       270.094734      154.603643      251.843352     1     0     0     0     8   1.560
       446.599755      117.520610      167.667754     1     0     0     0     3   1.560
       377.412632      245.957797      125.799179     1     0     0     0     7   1.560
       387.068384      135.505230      276.157844     1     0     0     0     3   1.560
       124.436879      201.323284      471.942881     1     0     0     0     1   1.560
       475.553235      293.157316      439.055327     1     0     0     0     3   1.560
       201.751943      433.783003      323.827505     1     0     0     0     7   1.560
       205.524650      288.233662      311.413222     1     0     0     0     1   1.560
       258.630763       50.716365      369.692306     1     0     0     0     7   1.560
       407.968979      241.362444      456.127443     1     0     0     0     4   1.560
       249.803281      445.856743      493.821242     1     0     0     0     2   1.560
       197.017421      477.223419      372.684295     1     0     0     0     4   1.560
       264.497368      166.522900       51.491413     1     0     0     0     4   1.560
       164.429996      425.399873       84.412082     1     0     0     0     3   1.560
        89.820354      104.961921      470.991228     1     0     0     0     7   1.560
       429.981620      126.214214      346.280431     1     0     0     0     1   1.560
        41.515611      230.326213      383.682141     1     0     0     0     6   1.560
       377.994118        8.585437      204.175337     1     0     0     0     7   1.560
       245.909343       40.862468      363.982740     1     0     0     0     4   1.560
       481.137977       81.199464      279.813241     1     0     0     0     7   1.560
       402.248993      192.497359       31.243302     1     0     0     0     5   1.560
       330.168524      485.123943      319.482554     1     0     0     0     2   1.560
       303.691954      160.475627      236.473758     1     0     0     0     1   1.560
       382.010429      313.397841      156.618949     1     0     0     0     7   1.560
       142.241384      180.840326       83.092825     1     0     0     0     6   1.560
        56.003776      211.667194       81.624428     1     0     0     0     7   1.560
       365.964756      403.232036      485.680205     1     0     0     0     3   1.560
       268.214204       10.685234      104.219079     1     0     0     0     5   1.560
       221.195199      168.000446       56.738496     1     0     0     0     7   1.560
         4.075802      177.648178      383.945949     1     0     0     0     6   1.560
        36.946868       93.831156       41.416812     1     0     0     0     1   1.560
       280.795735      138.704851      436.641815     1     0     0     0     3   1.560
       445.631474      450.901987      238.682619     1     0     0     0     7   1.560
       451.533973      262.233520       72.890779     1     0     0     0     4   1.560
       264.609645      457.766053      440.139576     1     0     0     0     6   1.560
         4.873775      100.947940       85.906312     1     0     0     0     8   1.560
       134.331586      170.681448      125.173689     1     0     0     0     4   1.560
       317.942013      384.643030      454.432907     1     0     0     0     5   1.560
       142.646639      310.643581      348.969138     1     0     0     0     4   1.560
       396.713157       22.175823      348.567761     1     0     0     0     3   1.560
       305.626180      293.623895      235.979508     1     0     0     0     7   1.560
       269.022947      365.764606      310.935789     1     0     0     0     2   1.560
       373.614623      159.870586       72.502350     1     0     0     0     2   1.560
       205.929108      451.886310      171.828186     1     0     0     0     8   1.560
       168.019252      265.642675      180.347345     1     0     0     0     3   1.560
        54.895831      499.852516       50.104347     1     0     0     0     4   1.560
       100.914003      151.082366      127.861822     1     0     0     0     8   1.560
       380.228340       25.508853       46.730206     1     0     0     0     1   1.560
       192.920330      315.791600      254.026859     1     0     0     0     7   1.560
       162.752063      428.954957      367.043965     1     0     0     0     5   1.560
       125.143832      222.551601      108.942832     1     0     0     0     2   1.560
       325.515290      476.798051      223.204060     1     0     0     0     2   1.560
       248.169320      314.942819      369.711983     1     0     0     0     7   1.560
        83.299340       79.366125      433.360117     1     0     0     0     3   1.560
        64.325240       84.565350      177.892176     1     0     0     0     4   1.560
       425.925274      243.194922      440.412723     1     0     0     0     3   1.560
       195.635294      117.464392      122.882436     1     0     0     0     2   1.560
       139.985681      135.244558      144.842987     1     0     0     0     6   1.560
       335.740260      211.536626      201.469334     1     0     0     0     1   1.560
        50.057066      416.522467      368.932762     1     0     0     0     3   1.560
       116.624309      334.447211       83.039330     1     0     0     0     5   1.560
       460.119225      434.550568      316.958408     1     0     0     0     5   1.560
       402.444366      347.984381       10.441448     1     0     0     0     3   1.560
       113.312654      499.519303      484.863083     1     0     0     0     6   1.560
       134.214514      105.219952       77.849178     1     0     0     0     7   1.560
       271.078413      435.255348      110.419949     1     0     0     0     7   1.560
       482.141247      217.060370      127.899321     1     0     0     0     2   1.560
       348.745042      368.330131      448.714650     1     0     0     0     8   1.560
       159.141687      210.382703       13.271372     1     0     0     0     6   1.560
       213.089319      355.816308      458.875240     1     0     0     0     7   1.560
       142.135752      401.385254      336.478388     1     0     0     0     5   1.560
       212.157829      312.244843       83.337242     1     0     0     0     2   1.560
       242.421055        0.183344      432.069486     1     0     0     0     1   1.560
       126.433155      157.402500      292.330884     1     0     0     0     4   1.560
       332.742155      472.964045      172.496501     1     0     0     0     6   1.560
       324.574161      307.557338      203.580992     1     0     0     0     2   1.560
        78.042593      225.285827      300.335684     1     0     0     0     4   1.560
       232.209673      468.269782      390.725077     1     0     0     0     7   1.560
       313.241038      465.107354      475.247894     1     0     0     0     1   1.560
       470.826007       85.361404       36.842894     1     0     0     0     7   1.560
       115.193718      187.330955      324.769546     1     0     0     0     2   1.560
       451.228307       18.552948      215.668563     1     0     0     0     2   1.560
       436.451493      418.276316      279.614682     1     0     0     0     5   1.560
       406.559865      141.104432      277.471460     1     0     0     0     3   1.560
       373.186666      103.526911      237.327599     1     0     0     0     6   1.560
        70.157301      305.991289      227.383766     1     0     0     0     5   1.560
       335.467772      231.564514      302.137140     1     0     0     0     6   1.560
        17.326243      295.649947      283.090088     1     0     0     0     4   1.560
       100.396771      142.123595      468.898606     1     0     0     0     4   1.560
       335.770798       67.029622      361.780109     1     0     0     0     6   1.560
        69.527088       35.207680      366.291807     1     0     0     0     8   1.560
       352.915972      117.461802      306.580624     1     0     0     0     1   1.560
       138.017599      190.749675       61.622387     1     0     0     0     2   1.560
        88.397696       74.273368      361.592597     1     0     0     0     5   1.560
       254.484898       15.517090      245.377020     1     0     0     0     6   1.560
       448.322545        4.769338      187.503743     1     0     0     0     6   1.560
       443.996078      362.273038      234.089383     1     0     0     0     5   1.560
       250.742960      369.076912      440.473627     1     0     0     0     1   1.560
       410.917409      475.539113      475.679268     1     0     0     0     7   1.560
        45.347796      182.527289      349.769826     1     0     0     0     6   1.560
       418.147874      143.399757      260.787911     1     0     0     0     8   1.560
       371.025045       78.128247      219.766573     1     0     0     0     4   1.560
       120.457201       93.543353      479.504106     1     0     0     0     3   1.560
       439.899137      198.760513       11.263118     1     0     0     0     3   1.560
       308.905696      148.637989      114.914638     1     0     0     0     8   1.560
       109.799669       79.564698      319.651514     1     0     0     0     3   1.560
       121.636097      406.381154      277.542035     1     0     0     0     4   1.560
       168.365585       40.665775      180.611143     1     0     0     0     2   1.560
       457.326672      369.899948        2.690397     1     0     0     0     1   1.560
       356.119882       81.289179      262.501608     1     0     0     0     8   1.560
       344.972105      488.332476       43.173569     1     0     0     0     1   1.560
        77.256264      105.090363      217.945691     1     0     0     0     2   1.560
       430.506521      302.701429       41.758776     1     0     0     0     8   1.560
        79.230889      347.380396      319.589232     1     0     0     0     5   1.560
       251.118294      424.113863      155.090267     1     0     0     0     6   1.560
       277.047276      310.489151       72.554512     1     0     0     0     8   1.560
       432.898553      241.410401      168.474728     1     0     0     0     5   1.560
        26.938705      253.320868      451.396236     1     0     0     0     4   1.560
       255.291465      339.842887       30.284679     1     0     0     0     6   1.560
       215.070063       89.656480      123.444863     1     0     0     0     4   1.560
       301.821875       29.518911      319.912094     1     0     0     0     4   1.560
       340.766639      191.179149      383.286311     1     0     0     0     7   1.560
       197.448050       44.152005       79.406571     1     0     0     0     6   1.560
       362.303111       68.713940       21.029239     1     0     0     0     2   1.560
       396.828718      144.119167      264.924764     1     0     0     0     6   1.560
       123.129224      135.599041      140.041437     1     0     0     0     2   1.560
       101.877815      296.381390      474.249656     1     0     0     0     4   1.560
       216.105303      176.061532       41.376154     1     0     0     0     5   1.560
       232.652277      214.618016       88.977727     1     0     0     0     6   1.560
       146.277774      185.285908      338.708218     1     0     0     0     6   1.560
        83.944474      267.325428       21.694800     1     0     0     0     8   1.560
       447.341525      334.591565      376.579288     1     0     0     0     2   1.560
       233.560379       21.308159      368.840210     1     0     0     0     2   1.560
       205.467104      294.581095       14.305736     1     0     0     0     7   1.560
       313.161905       87.573449      353.309500     1     0     0     0     7   1.560
        72.251120      270.023954        4.888802     1     0     0     0     1   1.560
       445.676570      227.292326      339.695458     1     0     0     0     1   1.560
       261.166877      498.972676      148.488478     1     0     0     0     3   1.560
        48.606027       85.139219      308.468284     1     0     0     0     7   1.560
        93.478424      314.152800      302.181158     1     0     0     0     1   1.560
       218.385070      468.612044       16.911922     1     0     0     0     1   1.560
       124.371850      404.894912       34.023632     1     0     0     0     3   1.560
       303.094232      233.755178      133.686917     1     0     0     0     6   1.560
       200.516927       65.919623      442.973423     1     0     0     0     6   1.560
       208.246853       18.584377      260.193171     1     0     0     0     6   1.560
       155.636945      179.795287      415.479137     1     0     0     0     5   1.560
        49.001848      422.965415      238.888208     1     0     0     0     2   1.560
       465.855424       82.412057      470.509589     1     0     0     0     3   1.560
       103.206393      449.457666      225.211190     1     0     0     0     7   1.560
       148.154570       33.996740      364.480616     1     0     0     0     6   1.560
       111.870168      365.419001      127.493109     1     0     0     0     1   1.560
       383.616158      134.440847      179.595467     1     0     0     0     1   1.560
       295.540450      256.140324      256.917633     1     0     0     0     7   1.560
       131.426816       27.397442      291.041792     1     0     0     0     4   1.560
       460.834496      143.401547      464.958140     1     0     0     0     8   1.560
       141.311812      392.816122      180.486517     1     0     0     0     6   1.560
       166.191614       77.862156      346.989683     1     0     0     0     5   1.560
       232.940961      455.434219      203.363234     1     0     0     0     6   1.560
       499.620147       95.406791      293.642564     1     0     0     0     5   1.560
        34.165607      411.838039      397.703924     1     0     0     0     5   1.560
       450.076941      284.674161      384.394711     1     0     0     0     8   1.560
        53.426321      215.973559      300.054744     1     0     0     0     1   1.560
       379.008150      430.436398      462.901218     1     0     0     0     8   1.560
       432.445422      253.023087      258.263019     1     0     0     0     6   1.560
        28.953082       64.220912      474.818582     1     0     0     0     2   1.560
       294.900782      217.473374        8.721479     1     0     0     0     6   1.560
       122.486587      355.701619      214.640906     1     0     0     0     2   1.560
       298.856547      242.740240       24.362209     1     0     0     0     7   1.560
       420.375742      459.232498      469.973004     1     0     0     0     6   1.560
       260.127641      242.920093      258.210634     1     0     0     0     1   1.560
        24.895919       83.303879      438.027740     1     0     0     0     4   1.560
         0.737984      411.124022      242.363408     1     0     0     0     1   1.560
       123.992774       62.098284       95.493177     1     0     0     0     4   1.560
       376.222567      336.416331      439.568431     1     0     0     0     7   1.560
       476.714320      226.579766      350.237915     1     0     0     0     5   1.560
       297.144854      417.281731      138.095214     1     0     0     0     1   1.560
       268.345452      382.832557      316.212301     1     0     0     0     8   1.560
       346.464278      440.433116      226.121924     1     0     0     0     6   1.560
       437.888021      259.771286      146.636077     1     0     0     0     3   1.560
        59.168203      413.036545      190.371076     1     0     0     0     7   1.560
       153.345038      402.912231      244.492683     1     0     0     0     1   1.560
       321.342490      167.446642      413.096631     1     0     0     0     4   1.560
        67.571198      333.841401      456.584699     1     0     0     0     7   1.560
       146.550715       85.460930       72.065700     1     0     0     0     2   1.560
       442.737834      193.597508      132.164483     1     0     0     0     6   1.560
        14.433902      486.920314      385.772455     1     0     0     0     6   1.560
       411.269237      298.884100      270.131595     1     0     0     0     8   1.560
        14.666531      365.681468      234.248392     1     0     0     0     8   1.560
       348.533238       44.901631      426.920946     1     0     0     0     7   1.560
       181.742794      268.502193      146.397818     1     0     0     0     8   1.560
       144.796675      359.505094      208.822578     1     0     0     0     3   1.560
       178.956317       91.253921      148.048023     1     0     0     0     5   1.560
       335.179728      126.580072      340.174249     1     0     0     0     8   1.560
       230.537685        7.053118      233.264500     1     0     0     0     1   1.560
       465.976967       11.676392      118.295530     1     0     0     0     5   1.560
       379.367559       95.163170      307.311376     1     0     0     0     8   1.560
       465.002889      491.745678      167.170980     1     0     0     0     6   1.560
       122.136720      386.788100      420.670593     1     0     0     0     8   1.560