ITEM: TIMESTEP
0
ITEM: NUMBER OF ATOMS
        7878
ITEM: BOX BOUNDS pp pp pp
  0.0000000E+00   500.000000000000     
  0.0000000E+00   500.000000000000     
  0.0000000E+00   500.000000000000     
ITEM: ATOMS x y z f1 f2 f3 f4 orient radius
        82.292531      176.257255       69.435511     1     0     0     0     4   1.560
       449.955872      369.963052      336.736687     1     0     0     0     5   1.560
       251.487583      312.713795      435.695422     1     0     0     0     4   1.560
       330.871967      443.683092      298.601667     1     0     0     0     4   1.560
       454.634567      189.277414      300.320199     1     0     0     0     2   1.560
       290.696010       55.867674      224.717880     1     0     0     0     2   1.560
       454.094320       50.934032      334.093525     1     0     0     0     3   1.560
       428.448330      460.989573      489.222203     1     0     0     0     5   1.560
       123.054187      291.461267       28.164283     1     0     0     0     6   1.560
       370.401836      281.527675      237.725648     1     0     0     0     8   1.560
       391.042232      420.580916      218.019253     1     0     0     0     3   1.560
        11.738454      364.212311       24.576221     1     0     0     0     3   1.560
       459.117403      460.278379      437.076426     1     0     0     0     8   1.560
       259.730546       77.541811      246.212378     1     0     0     0     7   1.560
        52.904015      290.651166       53.773428     1     0     0     0     8   1.560
       293.952688      326.327257        6.997443     1     0     0     0     5   1.560
       263.556258      328.253662       78.015817     1     0     0     0     7   1.560
       491.457813      163.241001      316.730261     1     0     0     0     6   1.560
        95.475158      249.205739      280.428790     1     0     0     0     1   1.560
        61.847843       88.159722       44.241523     1     0     0     0     6   1.560
       267.432789        3.688317      119.406509     1     0     0     0     4   1.560
        68.738484       87.367597       48.977292     1     0     0     0     1   1.560
        33.504089      470.569439      190.062879     1     0     0     0     5   1.560
        17.054389      109.524048      476.912863     1     0     0     0     5   1.560
       182.109117      152.244456      147.905507     1     0     0     0     2   1.560
       381.606331      276.930111      381.989203     1     0     0     0     3   1.560
       287.015544      238.605920      274.420982     1     0     0     0     4   1.560
       365.610209       23.201135      145.105672     1     0     0     0     7   1.560
       299.022693      120.647256      361.627796     1     0     0     0     4   1.560
        45.069368      384.576899       86.645685     1     0     0     0     6   1.560
       468.884459       34.028672      304.732488     1     0     0     0     7   1.560
       275.188132      212.626477      183.393916     1     0     0     0     6   1.560
       464.857126      174.398921      226.868935     1     0     0     0     7   1.560
       360.718218      487.449822      440.887099     1     0     0     0     4   1.560
        29.997715        0.052818      342.564290     1     0     0     0     4   1.560
       311.286035      357.732899      421.509793     1     0     0     0     5   1.560
       193.250429      171.879739      276.276941     1     0     0     0     4   1.560
       108.204593      494.121709      325.273738     1     0     0     0     3   1.560
       271.106455      449.730479      270.436497     1     0     0     0     3   1.560
       164.249220      114.772226      346.271484     1     0     0     0     1   1.560
       210.014816      392.391151      352.662859     1     0     0     0     4   1.560
       196.738492      239.893307      360.811851     1     0     0     0     7   1.560
       445.719279      186.445123      423.360898     1     0     0     0     3   1.560
       130.716637      424.325705       56.837564     1     0     0     0     5   1.560
       178.995873      448.128355      191.663890     1     0     0     0     6   1.560
       393.606023       93.496601      150.761747     1     0     0     0     3   1.560
       222.127136      238.931021      281.571663     1     0     0     0     2   1.560
       477.151260       18.506117        4.241476     1     0     0     0     6   1.560
       234.774653       91.426287      142.948540     1     0     0     0     5   1.560
        78.293234      418.764926      447.168055     1     0     0     0     1   1.560
       342.441740      340.489714       19.483831     1     0     0     0     3   1.560
       170.151400      447.790457      168.405770     1     0     0     0     8   1.560
       279.995298        6.200545      391.117413     1     0     0     0     8   1.560
       303.765342      132.726866      339.599961     1     0     0     0     3   1.560
       142.944074        5.433296      227.282647     1     0     0     0     1   1.560
       394.388124      411.891609      310.057788     1     0     0     0     3   1.560
       416.089101      449.904627      417.756964     1     0     0     0     7   1.560
       499.328938       48.682944      397.223762     1     0     0     0     3   1.560
       255.182251      195.655655        0.838453     1     0     0     0     6   1.560
       181.154311      320.228541      302.111968     1     0     0     0     7   1.560
       498.040977      449.748364      153.090544     1     0     0     0     7   1.560
       383.934655      477.551559      404.387688     1     0     0     0     4   1.560
       370.738977      432.579325      132.683487     1     0     0     0     6   1.560
       268.783439      417.479201      117.140937     1     0     0     0     3   1.560
       241.780446      149.822344      296.801037     1     0     0     0     5   1.560
       251.088547      443.465460      473.726820     1     0     0     0     1   1.560
       135.118034      125.312109      138.522728     1     0     0     0     7   1.560
       101.307961       83.558934      494.353276     1     0     0     0     7   1.560
       445.459079       94.270151       28.491253     1     0     0     0     8   1.560
       320.942585      155.539726      234.530515     1     0     0     0     1   1.560
       440.770275      270.048473      183.089735     1     0     0     0     6   1.560
       241.486061      307.339988      432.084248     1     0     0     0     1   1.560
       364.701628       33.868358      287.734997     1     0     0     0     8   1.560
       426.788676      209.721384       25.680495     1     0     0     0     8   1.560
        43.465453      181.519207      446.301732     1     0     0     0     5   1.560
        91.947673      124.815103      136.649182     1     0     0     0     6   1.560
       323.026888      393.248709       41.530793     1     0     0     0     2   1.560
       425.413899      120.070740       40.050027     1     0     0     0     4   1.560
       151.692294       20.413870       60.248951     1     0     0     0     1   1.560
       277.889875       95.474349      154.395279     1     0     0     0     6   1.560
        61.678587      311.843604       65.303476     1     0     0     0     6   1.560
       198.832615       69.464452      180.860965     1     0     0     0     2   1.560
       157.243135      181.620847      299.179534     1     0     0     0     3   1.560
       327.131513      342.914469      205.850324     1     0     0     0     1   1.560
       274.981342       84.650827      482.359075     1     0     0     0     3   1.560
       404.827288      270.344096        7.539069     1     0     0     0     3   1.560
       309.071885      465.746429      169.383695     1     0     0     0     4   1.560
       243.609197       65.873795      115.179949     1     0     0     0     5   1.560
       183.801116      191.980183      283.292222     1     0     0     0     1   1.560
       311.278241      433.862847      492.710843     1     0     0     0     3   1.560
       386.141870      219.678263      353.121905     1     0     0     0     8   1.560
        71.389613      228.967220       67.858653     1     0     0     0     5   1.560
       150.717671      388.582298      109.775835     1     0     0     0     3   1.560
       448.646397      164.642138      235.780069     1     0     0     0     4   1.560
       312.700517      496.714730      447.296707     1     0     0     0     8   1.560
        97.278516      199.903322      483.391265     1     0     0     0     4   1.560
       478.728140      398.256593      293.663524     1     0     0     0     7   1.560
       485.234802      382.947804      116.752140     1     0     0     0     4   1.560
       417.848116       10.535838       21.012336     1     0     0     0     3   1.560
       375.475784      375.466443       34.587316     1     0     0     0     5   1.560
       384.049371      485.929802      491.087915     1     0     0     0     7   1.560
        85.216942      168.009092      234.393523     1     0     0     0     7   1.560
       122.144825      485.359617      338.100684     1     0     0     0     2   1.560
        55.391515      472.253541      238.917686     1     0     0     0     1   1.560
        48.214198      407.758569      255.923358     1     0     0     0     3   1.560
       341.809241      162.529416      445.876899     1     0     0     0     3   1.560
       263.241609      218.636176      324.813529     1     0     0     0     7   1.560
       152.754674      116.314763       31.873638     1     0     0     0     6   1.560
       485.586687       12.100138      419.678799     1     0     0     0     7   1.560
       474.401171      299.538780      493.791650     1     0     0     0     4   1.560
       177.429576      384.388034      211.057020     1     0     0     0     4   1.560
       382.063081       66.931522      485.904821     1     0     0     0     3   1.560
       269.107091       10.246476      392.333662     1     0     0     0     3   1.560
       207.380844       70.231663       42.004806     1     0     0     0     5   1.560
        92.797751      225.995496      381.701927     1     0     0     0     6   1.560
       209.677320      457.977311      424.162287     1     0     0     0     7   1.560
       174.458831      183.432408      310.198122     1     0     0     0     6   1.560
       382.137454      359.594652        4.567546     1     0     0     0     5   1.560
       468.352668      107.345473       57.988090     1     0     0     0     1   1.560
       242.828049      494.237238       41.949184     1     0     0     0     1   1.560
       163.591668      240.323311      403.930715     1     0     0     0     7   1.560
       398.103942      309.418397      326.012314     1     0     0     0     2   1.560
        94.112836       74.961719       22.860376     1     0     0     0     1   1.560
        61.137595      136.911843      110.329804     1     0     0     0     4   1.560
        43.699775        2.924517      279.796358     1     0     0     0     8   1.560
       173.260848      448.757073      445.856898     1     0     0     0     3   1.560
        96.686306      349.018996      114.800210     1     0     0     0     1   1.560
       299.014296       41.680299      174.773196     1     0     0     0     7   1.560
       444.062915      425.960170      319.120271     1     0     0     0     6   1.560
       147.692092      432.655251      421.733508     1     0     0     0     7   1.560
       176.404412      307.941084        1.071233     1     0     0     0     2   1.560
       286.766609      177.388131       34.103250     1     0     0     0     1   1.560
       279.150169      394.029542      158.375125     1     0     0     0     5   1.560
       324.179924      468.368227      255.799918     1     0     0     0     2   1.560
       483.301058      445.865738      404.824526     1     0     0     0     2   1.560
       244.996776      218.494259      417.396329     1     0     0     0     3   1.560
       231.369458      401.710759      135.501302     1     0     0     0     2   1.560
       131.819680       52.236535       16.046246     1     0     0     0     7   1.560
       204.376526      307.267374      195.862391     1     0     0     0     2   1.560
       349.001885       59.716474      423.126527     1     0     0     0     3   1.560
       265.347009      149.855919      250.260778     1     0     0     0     8   1.560
       451.347479       96.947138      172.415478     1     0     0     0     7   1.560
       375.830057      238.044923      117.886305     1     0     0     0     1   1.560
       393.398684      138.670379      279.322994     1     0     0     0     1   1.560
       129.184604      202.905859      473.525456     1     0     0     0     4   1.560
       470.805511      285.244442      450.133351     1     0     0     0     3   1.560
       203.334517      422.704979      322.244930     1     0     0     0     7   1.560
       192.864051      291.398811      308.248072     1     0     0     0     1   1.560
       244.387590       58.629239      374.440030     1     0     0     0     4   1.560
       398.473530      238.197294      443.466844     1     0     0     0     7   1.560
       240.307832      452.187043      471.665195     1     0     0     0     4   1.560
       300.056421        0.690720      426.456699     1     0     0     0     2   1.560
       270.827667      153.862301       48.326264     1     0     0     0     1   1.560
       422.614044      253.355933      172.032057     1     0     0     0     1   1.560
        92.985503      108.127070      467.826078     1     0     0     0     6   1.560
       469.713702      141.235145       96.519246     1     0     0     0     5   1.560
        52.593635      235.073938      388.429866     1     0     0     0     5   1.560
       382.741842       22.828610      205.757912     1     0     0     0     1   1.560
       242.744193       44.027618      379.808489     1     0     0     0     2   1.560
       484.303127       81.199464      279.813241     1     0     0     0     4   1.560
       403.831568      190.914784       35.991026     1     0     0     0     8   1.560
       314.342776      459.802746      313.152254     1     0     0     0     7   1.560
       250.666931       29.904512       81.259827     1     0     0     0     4   1.560
       386.758153      324.475864      151.871225     1     0     0     0     5   1.560
       392.079768       63.092817      293.769071     1     0     0     0     2   1.560
        54.421201      203.754320       73.711554     1     0     0     0     4   1.560
       373.877630      411.144910      490.427929     1     0     0     0     5   1.560
       271.379354        7.520085      120.044827     1     0     0     0     8   1.560
       276.087928       22.452376       33.984903     1     0     0     0     4   1.560
         7.240952      180.813327      383.945949     1     0     0     0     5   1.560
        22.703695       79.587983       46.164536     1     0     0     0     3   1.560
       285.543459      130.791977      444.554689     1     0     0     0     3   1.560
       450.379198      455.649711      221.274296     1     0     0     0     5   1.560
       453.116548      273.311544       77.638503     1     0     0     0     4   1.560
       263.027070      472.009226      429.061552     1     0     0     0     4   1.560
       487.865788      339.478087      461.679580     1     0     0     0     1   1.560
       123.253563      172.264023      107.765366     1     0     0     0     5   1.560
       325.854887      389.390755      465.510931     1     0     0     0     6   1.560
       148.976938      301.148132      339.473689     1     0     0     0     3   1.560
       395.130582       33.253847      359.645785     1     0     0     0     3   1.560
       315.121629      309.449643      251.805256     1     0     0     0     8   1.560
       270.605521      357.851731      303.022915     1     0     0     0     6   1.560
       372.032049      167.783460       58.259176     1     0     0     0     5   1.560
        39.291409       56.354079      303.453923     1     0     0     0     4   1.560
       168.019252      271.972974      180.347345     1     0     0     0     4   1.560
        64.391279      490.357067       59.599796     1     0     0     0     7   1.560
        96.527320      298.709874      380.228877     1     0     0     0     2   1.560
       380.228340       22.343704       46.730206     1     0     0     0     6   1.560
       181.842306      323.704475      255.609434     1     0     0     0     8   1.560
       169.082362      441.615555      348.053067     1     0     0     0     8   1.560
       139.387006      217.803877      113.690556     1     0     0     0     3   1.560
       168.427403      118.892509      465.694054     1     0     0     0     7   1.560
       245.004171      314.942819      357.051385     1     0     0     0     2   1.560
        72.221316       90.444149      434.942692     1     0     0     0     8   1.560
        69.072965       98.808524      185.805050     1     0     0     0     4   1.560
       433.838149      244.777497      441.995298     1     0     0     0     5   1.560
       190.887570      122.212116      133.960459     1     0     0     0     3   1.560
       157.394004      136.827133      152.755861     1     0     0     0     6   1.560
       330.992536      200.458602      203.051909     1     0     0     0     1   1.560
        64.300239      430.765640      380.010786     1     0     0     0     1   1.560
       118.206884      336.029786       78.291606     1     0     0     0     7   1.560
       456.954075      444.046017      313.793258     1     0     0     0     7   1.560
       394.531492      355.897255      496.198275     1     0     0     0     2   1.560
       113.312654        5.849602      488.028233     1     0     0     0     6   1.560
       143.709963       98.889653       81.014327     1     0     0     0     5   1.560
       275.826138      436.837923      118.332823     1     0     0     0     1   1.560
       497.966995      210.730071      134.229620     1     0     0     0     5   1.560
        77.144550      283.666174      177.934434     1     0     0     0     4   1.560
       163.889411      215.130427       11.688798     1     0     0     0     1   1.560
       208.341595      363.729182      444.632067     1     0     0     0     1   1.560
       123.337602      275.797978      200.751396     1     0     0     0     4   1.560
       218.488128      312.244843      102.328140     1     0     0     0     6   1.560
       245.586204        9.678793      438.399785     1     0     0     0     6   1.560
       120.102856      154.237350      292.330884     1     0     0     0     6   1.560
       320.895588       51.936631      366.367572     1     0     0     0     2   1.560
       313.496137      293.314165      205.163566     1     0     0     0     8   1.560
        74.877443      225.285827      300.335684     1     0     0     0     1   1.560
       230.627098      454.026609      389.142502     1     0     0     0     8   1.560
       305.328163      469.855079      489.491068     1     0     0     0     3   1.560
       469.243432       83.778829       28.930020     1     0     0     0     2   1.560
       129.436891      173.087781      335.847570     1     0     0     0     6   1.560
       457.558606       21.718098      215.668563     1     0     0     0     3   1.560
       442.781792      421.441466      289.110131     1     0     0     0     5   1.560
       404.977290      145.852157      282.219185     1     0     0     0     4   1.560
       389.012414      113.022360      237.327599     1     0     0     0     5   1.560
       354.072129      379.420557      488.966748     1     0     0     0     3   1.560
       332.302622      231.564514      305.302290     1     0     0     0     1   1.560
        18.908817      294.067373      284.672663     1     0     0     0     4   1.560
        87.736172      157.949343      478.394055     1     0     0     0     4   1.560
       404.413460      309.167303      214.592508     1     0     0     0     1   1.560
        72.692238       16.216782      366.291807     1     0     0     0     3   1.560
       363.993995      112.714078      311.328349     1     0     0     0     5   1.560
       133.269874      192.332250       41.048914     1     0     0     0     4   1.560
        85.232547       77.438517      342.601699     1     0     0     0     2   1.560
       270.310646       25.012539      270.698217     1     0     0     0     1   1.560
       456.235419        6.351913      198.581767     1     0     0     0     2   1.560
       440.830929      368.603337      237.254533     1     0     0     0     7   1.560
       233.334637      380.154936      445.221352     1     0     0     0     6   1.560
       407.752259      475.539113      482.009567     1     0     0     0     1   1.560
        40.600072      180.944714      345.022102     1     0     0     0     5   1.560
       438.721347      135.486883      268.700785     1     0     0     0     3   1.560
       366.277321       67.050224      208.688550     1     0     0     0     1   1.560
       401.605852      328.212187       50.714351     1     0     0     0     1   1.560
       163.488190      401.121894      301.682532     1     0     0     0     5   1.560
        46.524949       92.011363       32.949877     1     0     0     0     2   1.560
       120.877693       77.982123      314.903789     1     0     0     0     5   1.560
       127.966396      419.041753      280.707184     1     0     0     0     3   1.560
       144.653496      454.807985      427.106511     1     0     0     0     1   1.560
       465.239546      380.977971       16.933570     1     0     0     0     3   1.560
       343.459284       65.463431      259.336458     1     0     0     0     7   1.560
       338.641806        0.993074       43.173569     1     0     0     0     7   1.560
        98.469613      387.149865      251.536375     1     0     0     0     5   1.560
       427.341371      315.362027       54.419374     1     0     0     0     3   1.560
        96.639212      352.128120      314.841507     1     0     0     0     8   1.560
       259.031168      435.191887      159.837991     1     0     0     0     8   1.560
       281.795000      308.906576       80.467386     1     0     0     0     2   1.560
       276.857543      474.099735       50.023523     1     0     0     0     2   1.560
        25.356131      251.738294      452.978811     1     0     0     0     8   1.560
       264.786914      346.173187       33.449829     1     0     0     0     3   1.560
       210.322338       84.908756      115.531989     1     0     0     0     7   1.560
       366.370960       68.666909      158.196057     1     0     0     0     6   1.560
       337.601489      194.344298      395.946910     1     0     0     0     3   1.560
       192.700325       52.064879       80.989146     1     0     0     0     1   1.560
       360.720536       70.296515       16.281514     1     0     0     0     7   1.560
       379.420395      148.866892      257.011890     1     0     0     0     2   1.560
       127.876948      134.016467      151.119461     1     0     0     0     3   1.560
       111.373264      299.546539      467.919357     1     0     0     0     1   1.560
       214.522728      174.478957       36.628429     1     0     0     0     6   1.560
       221.574253      209.870292       90.560302     1     0     0     0     7   1.560
       379.788158      455.929402      443.818173     1     0     0     0     2   1.560
        82.361899      265.742853       23.277375     1     0     0     0     3   1.560
       442.593801      314.018092      365.501265     1     0     0     0     8   1.560
       235.142954       19.725584      367.257635     1     0     0     0     2   1.560
       207.049679      289.833370        9.558012     1     0     0     0     7   1.560
       115.002783       68.923489      276.317536     1     0     0     0     3   1.560
        61.173096      271.606528      496.975928     1     0     0     0     2   1.560
       442.511420      230.457475      330.200009     1     0     0     0     8   1.560
       265.914601        0.555250      140.575604     1     0     0     0     6   1.560
        72.344649       86.721794      300.555409     1     0     0     0     1   1.560
        88.730699      318.900524      306.928883     1     0     0     0     4   1.560
       234.210818      459.116596       29.572521     1     0     0     0     6   1.560
       124.371850      417.555511       37.188781     1     0     0     0     4   1.560
       279.355610      241.668052      132.104342     1     0     0     0     6   1.560
       194.186628       72.249922      449.303722     1     0     0     0     1   1.560
       209.829427        4.341203      245.949997     1     0     0     0     8   1.560
       150.889221      181.377862      426.557161     1     0     0     0     8   1.560
        69.575321      434.043439      237.305634     1     0     0     0     2   1.560
       473.768299       80.829482      472.092164     1     0     0     0     6   1.560
       100.041243      449.457666      228.376340     1     0     0     0     2   1.560
       151.319720       37.161889      358.150317     1     0     0     0     4   1.560
       113.452743      357.506127      119.580235     1     0     0     0     5   1.560
       383.616158      131.275697      185.925766     1     0     0     0     4   1.560
       292.375300      259.305473      253.752484     1     0     0     0     2   1.560
       121.931367       36.892891      294.206942     1     0     0     0     1   1.560
       468.747371      141.818972      466.540715     1     0     0     0     2   1.560
       138.146663      389.650973      177.321367     1     0     0     0     6   1.560
       169.356763       74.697006      343.824533     1     0     0     0     3   1.560
       240.853835      460.181944      214.441257     1     0     0     0     1   1.560
       494.872423      106.484815      279.399391     1     0     0     0     4   1.560
        24.670158      411.838039      400.869073     1     0     0     0     2   1.560
       454.824665      276.761287      385.977286     1     0     0     0     8   1.560
        32.852849      204.895535      295.307020     1     0     0     0     8   1.560
       390.086174      435.184122      464.483793     1     0     0     0     3   1.560
       429.280272      275.179135      255.097870     1     0     0     0     8   1.560
         9.962185       73.716361      474.818582     1     0     0     0     7   1.560
       286.987908      212.725650       13.469204     1     0     0     0     6   1.560
       135.147186      365.197068      208.310606     1     0     0     0     3   1.560
       319.430020      241.157665       10.119036     1     0     0     0     3   1.560
       421.958317      470.310522      465.225279     1     0     0     0     6   1.560
       258.545066      250.832967      256.628059     1     0     0     0     4   1.560
        37.556517       86.469029      434.862590     1     0     0     0     1   1.560
        11.816008      396.880848      247.111133     1     0     0     0     7   1.560
       131.905648       60.515709      100.240902     1     0     0     0     6   1.560
       368.309693      325.338307      444.316156     1     0     0     0     2   1.560
        70.818752      212.303447      483.728766     1     0     0     0     5   1.560
       289.231980      415.699156      130.182340     1     0     0     0     4   1.560
       273.093177      384.415132      308.299427     1     0     0     0     4   1.560
       340.133979      440.433116      222.956775     1     0     0     0     2   1.560
       441.053170      256.606136      152.966377     1     0     0     0     6   1.560
        71.828802      422.531994      196.701375     1     0     0     0     8   1.560
       153.345038      396.581931      253.988132     1     0     0     0     6   1.560
       316.594765      159.533768      417.844355     1     0     0     0     2   1.560
       189.961360      318.407785      115.703306     1     0     0     0     3   1.560
       151.298439       83.878355       79.978574     1     0     0     0     7   1.560
       441.155259      201.510382      152.737956     1     0     0     0     7   1.560
        22.346776      482.172589      371.529282     1     0     0     0     3   1.560
       362.791582      199.569095      289.922875     1     0     0     0     3   1.560
         9.918807      357.768594      245.326416     1     0     0     0     2   1.560
       342.202939       32.241033      436.416395     1     0     0     0     3   1.560
       178.577644      271.667342      146.397818     1     0     0     0     8   1.560
       146.379249      348.427071      207.240003     1     0     0     0     8   1.560
       191.616916       81.758472      151.213173     1     0     0     0     2   1.560
       336.762303      131.327797      332.261375     1     0     0     0     4   1.560
       241.615709       21.296292      234.847074     1     0     0     0     8   1.560
       480.220141       25.919566      110.382655     1     0     0     0     1   1.560
       350.881212       88.832871      304.146227     1     0     0     0     2   1.560
       468.168038      494.910828      160.840681     1     0     0     0     1   1.560
       136.379893      382.040376      412.757719     1     0     0     0     2   1.560