ITEM: TIMESTEP
0
ITEM: NUMBER OF ATOMS
        7880
ITEM: BOX BOUNDS pp pp pp
  0.0000000E+00   500.000000000000     
  0.0000000E+00   500.000000000000     
  0.0000000E+00   500.000000000000     
ITEM: ATOMS x y z nV nH f3 f4 orient
       140.351082       17.864494      226.870093     1     0     0     0     4
       263.815924       90.770970      109.289761     1     0     0     0     8
        35.738870       30.626527      454.764302     1     0     0     0     1
       188.725899        5.578402      242.053175     1     0     0     0     1
        81.636078       96.658107      189.429724     1     0     0     0     6
       255.958737       33.386188       16.893531     1     0     0     0     1
       364.338777      313.978091      172.373378     1     0     0     0     7
       318.542951       45.047210      454.702605     1     0     0     0     2
       492.673886      339.499930      473.433599     1     0     0     0     4
       116.204520       65.957553       25.510360     1     0     0     0     3
       296.313951      149.899268      270.078758     1     0     0     0     8
        57.815955      379.822381      425.708281     1     0     0     0     6
       193.397242        8.774732      287.356259     1     0     0     0     5
       447.922751      323.383324      362.705769     1     0     0     0     1
        31.734831      479.746010      101.955763     1     0     0     0     7
         4.696937      429.466649      471.299594     1     0     0     0     3
       315.779658        5.713803      370.646659     1     0     0     0     2
        79.118275      368.422470        0.245719     1     0     0     0     3
       288.655859      440.574720      118.300489     1     0     0     0     3
        48.505653       87.073755      433.576177     1     0     0     0     3
        97.172705      466.300326      139.974404     1     0     0     0     8
        65.528291      461.271919      246.753483     1     0     0     0     4
       298.634148      289.860727      376.612579     1     0     0     0     1
       394.299617      305.286835      448.108917     1     0     0     0     8
       321.624823      452.104270      362.041447     1     0     0     0     7
       285.012993       14.664753      444.870284     1     0     0     0     7
       441.494961      294.034806      323.702968     1     0     0     0     4
       221.840699       31.406062       26.169397     1     0     0     0     6
       121.187452      198.328654      391.036245     1     0     0     0     5
       171.574587      233.073171      379.872004     1     0     0     0     6
       285.899773      251.748406      256.841097     1     0     0     0     5
        58.616624      410.872765      387.235283     1     0     0     0     3
       256.367447       95.328626        1.595165     1     0     0     0     2
         7.004522      305.051906      457.215672     1     0     0     0     5
       200.890151      431.390952      114.815434     1     0     0     0     8
       164.159697        8.610154       29.115273     1     0     0     0     5
       313.310850      211.789212       62.629727     1     0     0     0     6
        45.769256      217.756625      146.278485     1     0     0     0     8
       421.645560      170.564420      207.073371     1     0     0     0     6
       348.334519      375.438237      462.749015     1     0     0     0     4
        92.073669      201.270236       23.952882     1     0     0     0     3
       294.213512      255.686385      295.513144     1     0     0     0     2
       112.528814      492.153396       63.705586     1     0     0     0     7
       254.120854       78.469654      181.672648     1     0     0     0     5
       307.923502      326.308761      188.854785     1     0     0     0     2
       427.095243      126.728971      422.888263     1     0     0     0     5
        40.084370      257.323435      415.236714     1     0     0     0     3
       105.092685      103.702036      436.990581     1     0     0     0     7
       281.888122      498.202766      239.260904     1     0     0     0     1
        85.735631       86.703459       68.222623     1     0     0     0     7
       226.017167       98.917404      280.556902     1     0     0     0     4
       434.642343      307.997862      141.165169     1     0     0     0     2
       166.898552      220.869132       68.038402     1     0     0     0     3
       373.512773      201.761383      490.245247     1     0     0     0     3
       421.905018      282.721232      149.742546     1     0     0     0     7
       259.736482      160.301589      330.969348     1     0     0     0     4
        80.129750      162.704220      446.391522     1     0     0     0     1
       132.313790       30.111903      497.320047     1     0     0     0     1
       169.057501      257.697386      244.399648     1     0     0     0     5
       492.669905      306.310681       48.463757     1     0     0     0     8
       363.861618       51.143085       86.779386     1     0     0     0     3
        90.482342        8.746159      337.957434     1     0     0     0     8
       328.053820      146.922464       88.554782     1     0     0     0     2
       450.650834      420.617653       66.321127     1     0     0     0     6
       338.536316      328.997882      305.831364     1     0     0     0     4
       472.204107      406.848460      425.061806     1     0     0     0     6
       285.078884      498.968216       52.221158     1     0     0     0     3
       373.412636      433.780763      440.447207     1     0     0     0     6
       466.967753      148.876670      266.711622     1     0     0     0     8
       268.537800      275.593136      310.513369     1     0     0     0     2
       352.778971      187.220138      387.572033     1     0     0     0     6
       327.040428      166.129078      404.050521     1     0     0     0     3
       291.897998      332.928458      342.595937     1     0     0     0     1
       370.409927      352.032117      329.521441     1     0     0     0     1
       169.255367      117.075642       91.282056     1     0     0     0     2
       330.325314      417.472185      488.629116     1     0     0     0     5
       413.329154      300.218813       36.933147     1     0     0     0     7
       355.041413      454.430650      251.128792     1     0     0     0     2
       389.410169      467.767787      303.642902     1     0     0     0     4
       255.515563       17.649202      382.714354     1     0     0     0     7
       125.596016       44.843093       88.442785     1     0     0     0     8
        79.976205      455.557255      208.952857     1     0     0     0     3
       471.814589      223.756291      432.010273     1     0     0     0     4
       188.131407      226.516312      382.480460     1     0     0     0     4
       119.764706      207.377093      188.590005     1     0     0     0     6
       350.886271      150.422806       34.657021     1     0     0     0     6
       385.456720      376.269433      487.179289     1     0     0     0     4
       385.194455      437.982359      138.960242     1     0     0     0     1
       451.290458      137.841724      191.899743     1     0     0     0     6
       483.223422      404.540219      394.322394     1     0     0     0     1
       192.420039      373.263988      400.610851     1     0     0     0     1
       144.161188      368.245084      209.207277     1     0     0     0     3
       480.174082       84.981245       11.216359     1     0     0     0     6
       445.066053       99.510767      373.257589     1     0     0     0     6
       260.795744      395.571519       48.193716     1     0     0     0     8
       336.679032      302.627225      385.900066     1     0     0     0     1
       310.550441      298.974090      359.045647     1     0     0     0     5
       436.985334      445.440173      444.192051     1     0     0     0     1
        98.184929       17.271862      111.707533     1     0     0     0     3
       179.327023      185.083782      421.987891     1     0     0     0     6
       223.668481      302.647552      182.590642     1     0     0     0     4
       435.492006      445.250015       88.425733     1     0     0     0     4
       488.233372      279.827498      346.015580     1     0     0     0     5
        23.154325      243.965411      360.586145     1     0     0     0     4
       327.717657      257.000151      347.038851     1     0     0     0     7
       106.223534      154.244706      190.005855     1     0     0     0     7
       439.184080       18.160917      272.341461     1     0     0     0     6
       462.297445       44.917372      254.609764     1     0     0     0     1
        24.532381      480.143753      383.016468     1     0     0     0     7
       438.531920       65.567862      206.293460     1     0     0     0     4
       153.833045      448.266441      476.493150     1     0     0     0     6
       224.800251      436.619818       50.255839     1     0     0     0     2
       403.431236      498.907197      221.205211     1     0     0     0     6
        19.879605      480.204551       40.459556     1     0     0     0     8
       447.828375      146.924698      112.902222     1     0     0     0     1
       117.267704      155.450136      268.703094     1     0     0     0     8
       420.244862      116.086608      325.005241     1     0     0     0     6
       405.471302      363.868031       68.400179     1     0     0     0     3
        49.063382      485.421483      131.612751     1     0     0     0     4
       202.127983      477.072601       53.199426     1     0     0     0     8
       312.042638      136.722984      274.961743     1     0     0     0     1
       114.608386       76.836876      342.300709     1     0     0     0     8
       213.042206      193.205056      448.015904     1     0     0     0     7
       415.598164      183.810106       82.333166     1     0     0     0     8
       166.979625      137.469364      382.622615     1     0     0     0     5
       100.124045      328.471293      337.111937     1     0     0     0     7
        98.393452       43.200050      437.628100     1     0     0     0     5
       134.569258      156.905940       83.651112     1     0     0     0     3
       157.791019      437.774170      351.451911     1     0     0     0     3
        53.434789       88.417114      175.122673     1     0     0     0     3
       422.069921      322.574385      117.543517     1     0     0     0     5
       148.085855      498.561383      404.554237     1     0     0     0     1
       400.807611      205.001508      423.884069     1     0     0     0     5
       489.764490      482.345803      496.933986     1     0     0     0     5
        29.915407      279.918211      376.722441     1     0     0     0     5
       335.249553      360.106567      396.825568     1     0     0     0     1
       265.517697      299.013510      386.176944     1     0     0     0     4
       349.041484      373.800686      110.949322     1     0     0     0     2
        11.247403      331.027599      247.618864     1     0     0     0     2
       313.228722      341.064082      465.745288     1     0     0     0     8
       322.320904      259.319210       23.295822     1     0     0     0     8
        43.408362       23.700242      133.696111     1     0     0     0     2
       157.226610       79.352306      325.965963     1     0     0     0     4
       171.770683      236.827941      451.052111     1     0     0     0     7
        94.986531      288.996367      216.745498     1     0     0     0     5
        45.082951       83.049267      114.977059     1     0     0     0     7
       113.984845      112.211812      405.448713     1     0     0     0     1
       344.042383      420.169892      461.426519     1     0     0     0     8
        37.614740       80.694773       37.220571     1     0     0     0     2
       354.767519      323.493369       74.848863     1     0     0     0     6
       251.134166      313.722492      141.048965     1     0     0     0     2
       301.542582       64.766434      436.993459     1     0     0     0     1
       469.978317      411.090286      177.407896     1     0     0     0     3
       181.981002       45.624694      275.416264     1     0     0     0     7
       188.088828       76.002709      422.476821     1     0     0     0     5
       467.147545      449.691025      214.898161     1     0     0     0     7
       261.636280      103.890235       30.943348     1     0     0     0     7
       482.441424      393.406382       50.405021     1     0     0     0     5
       271.795559       24.387558      116.496252     1     0     0     0     8
       294.049315      389.327800       69.630077     1     0     0     0     7
       339.430443      394.803467      165.956912     1     0     0     0     6
       242.553584      285.084969      302.500758     1     0     0     0     2
       440.287105      385.186276        7.787344     1     0     0     0     5
       362.493494      385.766144      222.322627     1     0     0     0     5
       110.596180      436.024887      448.409129     1     0     0     0     8
       222.976681      434.629614        2.301437     1     0     0     0     7
       453.119087      456.546797       74.401317     1     0     0     0     4
       308.352904      460.986678      285.794194     1     0     0     0     8
       264.271561      282.776106      395.730227     1     0     0     0     2
       448.749550      476.062391      286.888026     1     0     0     0     7
       325.744383      449.688790      263.054793     1     0     0     0     2
       142.310230      173.162219      314.686054     1     0     0     0     3
       292.689513      157.614480      180.646408     1     0     0     0     1
       367.073334      344.451109       91.038181     1     0     0     0     1
       367.753257      469.016422       66.665695     1     0     0     0     8
       488.944908      467.952334      399.085505     1     0     0     0     6
        76.600118       83.903208      303.616894     1     0     0     0     3
        17.580870      479.216908      387.044072     1     0     0     0     8
       404.953710      215.848719      335.888899     1     0     0     0     2
        15.787242      495.175216      352.219986     1     0     0     0     6
        51.157911      462.109563       85.219039     1     0     0     0     7
       177.070093      473.760768      227.987096     1     0     0     0     4
        68.098498      384.765132      175.333344     1     0     0     0     6
        59.963997      454.210420      165.600137     1     0     0     0     2
       436.157536      341.289891      148.091855     1     0     0     0     3
       410.367405      312.468198       24.088251     1     0     0     0     6
       201.495469       59.276756      385.119195     1     0     0     0     1
        92.557652      314.579857      228.134771     1     0     0     0     1
       203.521069        3.252585      382.803767     1     0     0     0     3
       203.435665      473.122604      214.256637     1     0     0     0     7
        16.437751      405.120241       63.978830     1     0     0     0     6
       268.207112       86.907699      248.336311     1     0     0     0     3
        91.264928       79.116071      447.689164     1     0     0     0     7
        64.302505      485.940844      296.124501     1     0     0     0     1
       486.334295      250.664507       65.615395     1     0     0     0     2
       317.294716      205.568364      207.337931     1     0     0     0     1
       105.536480      481.925912      196.476238     1     0     0     0     4
       106.617972      129.849854      255.029069     1     0     0     0     3
       152.052926      297.825821      257.961991     1     0     0     0     8
       165.723894       42.880925      243.599694     1     0     0     0     4
       188.201614      221.386001      112.214574     1     0     0     0     4
       326.773662       36.294282      447.145728     1     0     0     0     7
        81.894260       80.785578      108.819014     1     0     0     0     2
       421.074806      370.002484      117.560245     1     0     0     0     5
       206.766272      341.469360        9.101844     1     0     0     0     3
        69.263806      362.587069      434.615904     1     0     0     0     3
       489.550324       62.880090      271.656019     1     0     0     0     5
       315.042183      165.104893      323.374865     1     0     0     0     1
       408.727089       20.254372       25.366434     1     0     0     0     3
       129.029267      116.298068      438.605158     1     0     0     0     2
       435.363686      285.176700      115.439213     1     0     0     0     6
       191.827651      438.352758      327.578606     1     0     0     0     7
       116.626376      318.616094      295.313345     1     0     0     0     8
       463.075288      451.339189       28.476384     1     0     0     0     5
       293.666099      367.963248      416.654854     1     0     0     0     7
       189.892520       52.010808      427.695884     1     0     0     0     4
         5.681182      138.085421      130.746903     1     0     0     0     2
        44.957991      207.388820      166.844443     1     0     0     0     7
       248.962111      408.456155      377.573294     1     0     0     0     1
       371.427778        6.809297      143.904807     1     0     0     0     1
       374.830129      278.699736      361.533173     1     0     0     0     2
       449.728011      394.610467      461.402571     1     0     0     0     1
        93.785707      341.890335      111.152022     1     0     0     0     1
       215.999649      463.410636       37.930560     1     0     0     0     3
       255.691896      269.620815      240.972298     1     0     0     0     3
       241.753616       15.008873      206.707309     1     0     0     0     5
       358.466983      345.569101      405.255042     1     0     0     0     3
       161.261190      338.535373      158.673418     1     0     0     0     3
       464.210470      339.555226      220.354573     1     0     0     0     2
       150.511509      337.693339      307.288816     1     0     0     0     6
        86.324730      143.582157      496.251621     1     0     0     0     5
       438.736409       35.264687      245.879107     1     0     0     0     8
       471.040081       22.826849      395.870048     1     0     0     0     6
       482.136358      159.230237        2.213639     1     0     0     0     7
       424.208523      284.589019      405.382962     1     0     0     0     2
        15.292704      160.156067      215.058989     1     0     0     0     5
       148.217312      325.560979      446.668425     1     0     0     0     5
        70.780423      184.951472      150.900592     1     0     0     0     7
         1.365164      128.854698      163.292146     1     0     0     0     1
       230.659653      170.656676      269.851663     1     0     0     0     5
       292.237943       26.164172      477.678068     1     0     0     0     2
        51.042622      255.482047      229.715154     1     0     0     0     6
       312.868231      374.800004      464.112548     1     0     0     0     2
       198.836550      232.482456      292.177235     1     0     0     0     3
        57.947298      231.122801       13.380696     1     0     0     0     8
         4.050332        8.099111       79.808707     1     0     0     0     7
         2.572707       14.476249      314.879759     1     0     0     0     1
       423.787169      259.790790       57.880010     1     0     0     0     5
       302.368599       14.392090      433.653849     1     0     0     0     7
       217.897514      466.003968      148.071733     1     0     0     0     8
       479.542648      155.245385      317.910884     1     0     0     0     3
       130.424583      228.686144      403.867989     1     0     0     0     1
       370.795143      259.789351      357.546979     1     0     0     0     4
       212.052424      200.514930      107.041416     1     0     0     0     3
       133.994690      235.061869      200.066844     1     0     0     0     4
       130.819338      145.783727       30.760788     1     0     0     0     8
       342.653718      495.505062      430.635766     1     0     0     0     2
        85.464568      136.475002      478.542911     1     0     0     0     5
        15.898115      183.528309      151.256711     1     0     0     0     3
       316.576880      145.809475      425.003466     1     0     0     0     2
       323.627458      216.357568      407.324753     1     0     0     0     7
        38.283888      479.527252      111.669970     1     0     0     0     6
        95.621569      330.651008      486.422774     1     0     0     0     6
         5.454609      183.466394      161.429515     1     0     0     0     7
       182.206198      179.172361      439.695930     1     0     0     0     2
       236.108480      260.053783       49.125850     1     0     0     0     5
       467.332242      174.817463      454.064175     1     0     0     0     6
       403.700320      308.818688      401.433132     1     0     0     0     3
       339.381331      231.004932      232.443318     1     0     0     0     4
       413.623876       33.198822      268.840696     1     0     0     0     5
        18.511751      425.709460      395.518280     1     0     0     0     3
       328.800875      107.613674      148.192023     1     0     0     0     1
       441.655714      384.148739       21.576925     1     0     0     0     3
       154.876336      149.472254      276.911266     1     0     0     0     2
       158.529722      468.443928      352.032072     1     0     0     0     8
       457.712783       12.666851      160.371368     1     0     0     0     7
       419.973842       19.332453       82.453656     1     0     0     0     7
       194.747764      222.215244      240.975052     1     0     0     0     1
       114.144800       99.529316      257.775103     1     0     0     0     3
       309.716082      151.571558      129.243773     1     0     0     0     5
       345.206687      269.420784       24.719894     1     0     0     0     7
       214.120038      101.549415      372.455936     1     0     0     0     2
       208.339232      479.527662      481.730863     1     0     0     0     5
        30.050764      358.992435      102.529166     1     0     0     0     5
       387.197196      214.056461       50.265734     1     0     0     0     6
        69.742284      497.755616      492.138500     1     0     0     0     8
       433.176213      332.278234       60.220134     1     0     0     0     8
       242.595313      477.260679      141.884201     1     0     0     0     1
       218.669405       56.333938      342.059711     1     0     0     0     8
       237.285640      351.350271      121.946652     1     0     0     0     8
       328.605901      168.982717       99.987786     1     0     0     0     6
       201.145459       91.898436      498.276777     1     0     0     0     2
        86.308813      489.332128      351.220567     1     0     0     0     5
        56.888290       93.135690      238.131361     1     0     0     0     5
       468.023324      309.607608      178.181138     1     0     0     0     8
       470.157573       44.678171      319.448979     1     0     0     0     6
       475.549330      249.795646      198.369025     1     0     0     0     8
       496.475113      483.196299      187.951725     1     0     0     0     2
       206.086272      486.745440      168.055872     1     0     0     0     7
       101.796469      419.892529      379.143032     1     0     0     0     8
       278.437927      272.260782       28.290453     1     0     0     0     6
       360.344771      181.914088      464.176265     1     0     0     0     2
       318.864089      437.496329      380.581529     1     0     0     0     5
        12.828569      456.589179      457.275179     1     0     0     0     3
       162.226438      253.581348        6.853310     1     0     0     0     7
        85.534990      354.060632      411.272962     1     0     0     0     3
       332.490626      107.045137       14.253060     1     0     0     0     8
        97.194091      121.397347        7.657336     1     0     0     0     3
       330.276615      122.394058      476.754554     1     0     0     0     6
       354.440702      245.341119      342.065778     1     0     0     0     8
       327.835085      228.552293      372.684046     1     0     0     0     1
         4.385387      410.377097      373.928292     1     0     0     0     3
        41.112425       15.740268       37.622896     1     0     0     0     3
       374.165232      200.778497      291.426045     1     0     0     0     6
       474.273858      129.158961      491.193160     1     0     0     0     7
       310.295044      158.074605      217.825103     1     0     0     0     1
       319.712353      261.687234      205.013871     1     0     0     0     2
       110.689499      484.070742      313.841705     1     0     0     0     4
       207.010101      273.054228       58.576197     1     0     0     0     4
       453.015092      106.229949      493.597095     1     0     0     0     1
        85.062682      193.562020      181.868282     1     0     0     0     5
        48.411192      445.902056        5.884852     1     0     0     0     5
       449.200874      261.520555      365.907995     1     0     0     0     4
        19.907260      267.347865      412.287352     1     0     0     0     2
       289.624441      371.115244      392.426138     1     0     0     0     8
       395.073105      360.813699      198.236734     1     0     0     0     6
       453.010501      442.910131      355.899926     1     0     0     0     4
       435.570379        7.318453      337.367930     1     0     0     0     7
       252.216241       15.771736      431.806070     1     0     0     0     8
       135.807931       21.195408      491.130012     1     0     0     0     6
       406.944913       66.842939      174.456597     1     0     0     0     2
        81.848763       17.487550       45.188217     1     0     0     0     8
       115.857112      250.500312      423.921304     1     0     0     0     8
       406.427360      171.183544       25.747232     1     0     0     0     6
       260.114991      163.195912      441.336531     1     0     0     0     3
       341.932390      313.822354      366.601701     1     0     0     0     2
       120.654100      277.919818      181.979469     1     0     0     0     1
       423.663690      196.482069       57.913296     1     0     0     0     6
       106.712094       60.307950      324.577217     1     0     0     0     4
       288.677132      292.280625       11.645568     1     0     0     0     3
       339.904001       94.256260      103.957112     1     0     0     0     7
        69.125643      415.131902      389.657213     1     0     0     0     2
       371.845382      175.997321       66.590885     1     0     0     0     5
       261.505484      299.511264      477.624030     1     0     0     0     6
       452.158211      458.166920       88.869026     1     0     0     0     3
       197.494853       58.926265      441.878983     1     0     0     0     5
       244.107532      256.918809      415.665682     1     0     0     0     6
       388.092529      317.857454       90.720651     1     0     0     0     8
       448.293739      345.971747      171.733482     1     0     0     0     6
       277.620265      441.008782      304.489867     1     0     0     0     3
       276.755505       84.357218      282.020411     1     0     0     0     8
        73.271319       93.062229      214.853543     1     0     0     0     5
       321.019687      293.674687      466.992425     1     0     0     0     1
       296.942300      181.485479      203.640290     1     0     0     0     2
       371.391875      339.101381       94.415270     1     0     0     0     7
       409.477386      295.358314      146.068127     1     0     0     0     7
       223.323464      150.972152       54.491046     1     0     0     0     4
       303.274162      405.449039      412.745503     1     0     0     0     8
       166.706830      405.076433      244.845351     1     0     0     0     5
       293.026899      229.872444      145.476522     1     0     0     0     4
       169.879292      119.952542      103.338621     1     0     0     0     4
       236.433155       63.165214      391.003161     1     0     0     0     4
       498.219548      481.546186      404.125797     1     0     0     0     6
        94.730182      145.960000      416.824554     1     0     0     0     4
       448.908197      312.924518      277.609522     1     0     0     0     4
       394.071802      378.979509      403.152095     1     0     0     0     6
       123.619739      166.523533       91.294868     1     0     0     0     5
       259.487738      367.115178      416.222106     1     0     0     0     3
       155.805309      219.892170      264.859050     1     0     0     0     2
       372.961129       92.456068      258.640738     1     0     0     0     7
       367.476437      269.758801       15.730993     1     0     0     0     8
       392.498135      412.716985      322.025934     1     0     0     0     6