ITEM: TIMESTEP
0
ITEM: NUMBER OF ATOMS
        7878
ITEM: BOX BOUNDS pp pp pp
  0.0000000E+00   500.000000000000     
  0.0000000E+00   500.000000000000     
  0.0000000E+00   500.000000000000     
ITEM: ATOMS x y z f1 f2 f3 f4 orient radius
       229.040189      461.961064       14.667641     1     0     0     0     8   1.560
       429.382400      396.866824      328.823812     1     0     0     0     4   1.560
       249.905008      295.305472      453.103745     1     0     0     0     6   1.560
       428.225053      291.561189       83.558675     1     0     0     0     1   1.560
       460.964866      186.112264      287.659600     1     0     0     0     6   1.560
         8.035778      380.751626      245.684033     1     0     0     0     8   1.560
       446.181446       55.681756      323.015502     1     0     0     0     5   1.560
       286.233955      440.441740      292.869390     1     0     0     0     8   1.560
       143.363301      124.112015      335.294016     1     0     0     0     2   1.560
       384.645010      292.605699      223.482474     1     0     0     0     8   1.560
       373.633909      415.833191      225.932127     1     0     0     0     6   1.560
        27.564202      376.872910       18.245922     1     0     0     0     3   1.560
       471.778002      460.278379      437.076426     1     0     0     0     6   1.560
       259.730546       87.037260      227.221481     1     0     0     0     6   1.560
        35.495692      282.738292       68.016602     1     0     0     0     1   1.560
       300.282987      329.492407        0.667143     1     0     0     0     4   1.560
       368.408752      428.275335      320.720150     1     0     0     0     2   1.560
        50.759605      495.633521       46.262685     1     0     0     0     8   1.560
        73.319111      236.545140      315.245436     1     0     0     0     6   1.560
        80.838741      107.150619       56.902122     1     0     0     0     5   1.560
       428.541468       14.360690      157.324380     1     0     0     0     4   1.560
        41.834712       63.628974       56.890166     1     0     0     0     3   1.560
        27.173790      448.413392      177.402280     1     0     0     0     5   1.560
       351.642413      210.700626      385.997940     1     0     0     0     5   1.560
       186.856842      150.661881      165.313830     1     0     0     0     7   1.560
       150.002639       30.801086      414.517996     1     0     0     0     4   1.560
       285.432969      249.683944      282.333856     1     0     0     0     5   1.560
       435.097280      408.773284       63.423625     1     0     0     0     1   1.560
       318.013591      126.977555      364.792946     1     0     0     0     2   1.560
        40.321644      389.324623       94.558559     1     0     0     0     4   1.560
       294.240677       49.488386      487.218972     1     0     0     0     3   1.560
        51.135218      106.108338      475.465212     1     0     0     0     8   1.560
       466.439701      153.825449      222.121211     1     0     0     0     7   1.560
       348.057619      465.293774      418.731052     1     0     0     0     4   1.560
       332.691494      370.108966      200.470025     1     0     0     0     6   1.560
       143.497701      260.572446      291.653486     1     0     0     0     3   1.560
       496.295505       60.984113      489.799981     1     0     0     0     6   1.560
       130.360640      497.286859      337.934336     1     0     0     0     3   1.560
       366.669419      331.890242      316.715463     1     0     0     0     1   1.560
       173.744669      102.111628      330.445736     1     0     0     0     4   1.560
       455.461601      271.138280      302.627561     1     0     0     0     3   1.560
       188.825617      247.806181      359.229276     1     0     0     0     6   1.560
        45.150838      446.818821      293.069646     1     0     0     0     1   1.560
       129.134062      422.743131       48.924689     1     0     0     0     8   1.560
       186.908748      443.380631      183.751016     1     0     0     0     7   1.560
       250.686317      426.494989       72.027680     1     0     0     0     1   1.560
       231.622585      245.261320      259.415616     1     0     0     0     7   1.560
       469.238386       10.593242      489.998303     1     0     0     0     6   1.560
       220.531479       80.348263      160.356863     1     0     0     0     4   1.560
        92.536407      426.677800      455.080930     1     0     0     0     8   1.560
       221.026349      227.388485       22.686211     1     0     0     0     1   1.560
       162.238526      458.868481      176.318644     1     0     0     0     6   1.560
       265.752124      495.122521      399.030287     1     0     0     0     5   1.560
       329.086539      120.066268      339.599961     1     0     0     0     3   1.560
       120.788027      499.102996      217.787198     1     0     0     0     7   1.560
       397.553273      383.405262      297.397190     1     0     0     0     1   1.560
       433.497424      464.147800      419.339539     1     0     0     0     1   1.560
        34.145584       29.692046      406.719211     1     0     0     0     6   1.560
       253.599677      194.073081      473.934681     1     0     0     0     8   1.560
       151.085389      356.627762      306.859692     1     0     0     0     4   1.560
       498.040977      446.583215      172.081442     1     0     0     0     3   1.560
       379.186930        1.290182      405.970263     1     0     0     0     5   1.560
       206.550605      439.431810      140.037151     1     0     0     0     7   1.560
       267.200864      422.226926      109.228063     1     0     0     0     8   1.560
       219.624399      178.308691      318.957084     1     0     0     0     8   1.560
       232.097649      475.116956      454.735922     1     0     0     0     5   1.560
       131.952884      147.468157      138.522728     1     0     0     0     8   1.560
       106.055685       85.141508        5.431300     1     0     0     0     8   1.560
       450.206803      105.348175       52.229876     1     0     0     0     4   1.560
       333.847563      433.488879      348.861511     1     0     0     0     4   1.560
       437.605125      251.057575      183.089735     1     0     0     0     5   1.560
       246.233785      299.427114      424.171374     1     0     0     0     8   1.560
       229.882260      486.160134       36.978081     1     0     0     0     3   1.560
       349.594814       16.705475      198.081186     1     0     0     0     5   1.560
       380.676572      162.060358       79.744430     1     0     0     0     4   1.560
       380.580694      407.971597      232.138621     1     0     0     0     2   1.560
       342.017786      377.422961       38.365643     1     0     0     0     3   1.560
       404.840427       99.497268       44.797751     1     0     0     0     7   1.560
       156.440019       34.657043       55.501227     1     0     0     0     8   1.560
       282.637600      109.717523      159.143004     1     0     0     0     2   1.560
        96.495233      318.173903       65.303476     1     0     0     0     3   1.560
       229.973411       42.369533      378.180460     1     0     0     0     7   1.560
       267.249599      233.049168       87.394995     1     0     0     0     1   1.560
       304.975466      336.584170      218.510922     1     0     0     0     7   1.560
       262.320743       62.494780      463.368177     1     0     0     0     6   1.560
       407.992438      241.857750       20.199667     1     0     0     0     1   1.560
        38.658815       90.253041      222.141424     1     0     0     0     6   1.560
       238.861472       64.291220      138.918572     1     0     0     0     6   1.560
       174.305667      179.319584      289.622522     1     0     0     0     1   1.560
       339.764588      433.862847      499.041142     1     0     0     0     7   1.560
        10.841242      369.741249      372.327016     1     0     0     0     4   1.560
        63.476739      233.714944       72.606377     1     0     0     0     4   1.560
         7.288844      104.141532      374.193142     1     0     0     0     8   1.560
       469.219870      175.720162      240.527794     1     0     0     0     8   1.560
       296.874769       18.870778      447.296707     1     0     0     0     3   1.560
       121.017138      204.651047      484.973840     1     0     0     0     5   1.560
       480.310715      387.178569      292.080949     1     0     0     0     4   1.560
       486.817377      390.860678      118.334714     1     0     0     0     3   1.560
       411.517816       20.031287       49.498683     1     0     0     0     1   1.560
       362.815186      400.787640       53.578214     1     0     0     0     6   1.560
       369.806197      490.677527      476.844742     1     0     0     0     4   1.560
        83.634368      175.921966      226.480649     1     0     0     0     5   1.560
       120.562250      499.602790      346.013558     1     0     0     0     7   1.560
        49.061216      475.418691      216.761639     1     0     0     0     2   1.560
        11.618410      305.969907      364.588359     1     0     0     0     8   1.560
       359.217565      195.763488      441.129175     1     0     0     0     3   1.560
       232.572882      217.222587      464.658734     1     0     0     0     3   1.560
       136.928925       84.663267       44.534236     1     0     0     0     7   1.560
       120.259263      496.265795      458.357816     1     0     0     0     2   1.560
       355.672888      108.210980      141.803039     1     0     0     0     4   1.560
       246.090078       80.850118      130.326109     1     0     0     0     4   1.560
       131.725856      186.582052      265.506366     1     0     0     0     6   1.560
       264.359367       14.994201      406.576835     1     0     0     0     1   1.560
       499.232580      409.466183       84.874296     1     0     0     0     7   1.560
       301.787697      251.043309      270.508766     1     0     0     0     1   1.560
       223.920493      459.559886      419.414563     1     0     0     0     4   1.560
       182.371705      194.510431      311.780697     1     0     0     0     6   1.560
       388.467754      340.603755       10.897845     1     0     0     0     7   1.560
       358.172060      409.564075      458.870160     1     0     0     0     1   1.560
       242.828049      491.072089       57.774932     1     0     0     0     2   1.560
       157.261369      240.323311      407.095865     1     0     0     0     3   1.560
        88.064148      296.954251      370.777361     1     0     0     0     7   1.560
        98.860561       86.039743       43.433849     1     0     0     0     3   1.560
        50.059571      116.338370      102.416930     1     0     0     0     3   1.560
        38.952051      469.690445      278.213783     1     0     0     0     3   1.560
       457.617101      319.465463      252.177487     1     0     0     0     1   1.560
       322.892140      243.565279      296.351151     1     0     0     0     4   1.560
       308.509745       32.184850      171.608047     1     0     0     0     6   1.560
       432.984891      437.038193      317.537696     1     0     0     0     5   1.560
       131.866344      432.655251      405.907759     1     0     0     0     6   1.560
       261.874881       52.010337      365.364327     1     0     0     0     6   1.560
       246.856024      486.780636       80.552000     1     0     0     0     4   1.560
       269.654720      409.855290      145.714527     1     0     0     0     8   1.560
       347.918547      476.281101      270.043091     1     0     0     0     6   1.560
       469.057885      450.613462      406.407101     1     0     0     0     3   1.560
       230.753603      207.416235      412.648604     1     0     0     0     1   1.560
       213.961135      393.797885      121.258128     1     0     0     0     6   1.560
       399.581991      344.775236      205.669588     1     0     0     0     3   1.560
       210.706825      297.771925      218.018439     1     0     0     0     7   1.560
       371.157933       62.881623      435.787126     1     0     0     0     5   1.560
       278.007608      162.516517      237.600179     1     0     0     0     5   1.560
       436.177680       30.396546      480.446452     1     0     0     0     8   1.560
       385.325506      241.210073      111.556006     1     0     0     0     6   1.560
       394.981258       99.106009      255.584371     1     0     0     0     5   1.560
       100.965575      200.375000       59.119030     1     0     0     0     7   1.560
       456.562338      280.496718      445.385626     1     0     0     0     7   1.560
       215.995116      419.539829      325.410080     1     0     0     0     7   1.560
       191.281476      299.311685      316.160946     1     0     0     0     4   1.560
       370.275536      348.989829      154.307312     1     0     0     0     5   1.560
       390.560656      255.605617      454.544868     1     0     0     0     3   1.560
       235.560108      469.595366      479.578069     1     0     0     0     3   1.560
       292.143547      486.447546      412.213526     1     0     0     0     4   1.560
       275.575392      149.114577       40.413390     1     0     0     0     6   1.560
       422.614044      266.016532      165.701757     1     0     0     0     7   1.560
        17.298351      256.350901      443.838194     1     0     0     0     1   1.560
       442.291275      270.139467      254.373270     1     0     0     0     4   1.560
        38.350461      236.656513      402.673039     1     0     0     0     5   1.560
       382.741842        7.002862      215.253361     1     0     0     0     8   1.560
       486.463744       90.021296      477.115139     1     0     0     0     1   1.560
       492.216001       76.451739      290.891265     1     0     0     0     4   1.560
       388.005820      162.428437       54.981924     1     0     0     0     7   1.560
       327.003374      459.802746      316.317404     1     0     0     0     4   1.560
       392.650169      176.764984      432.681173     1     0     0     0     4   1.560
       375.680129      319.728140      150.288650     1     0     0     0     2   1.560
       423.731264       66.257967      293.769071     1     0     0     0     1   1.560
        65.499225      205.336895       72.128979     1     0     0     0     1   1.560
       377.042780      398.484312      493.593079     1     0     0     0     5   1.560
        82.089463        5.302647      352.797759     1     0     0     0     2   1.560
       265.009904       17.704652       54.558376     1     0     0     0     4   1.560
        10.406102      164.987579      396.606548     1     0     0     0     3   1.560
        25.868844       79.587983       39.834237     1     0     0     0     8   1.560
       276.048010      149.782875      450.884988     1     0     0     0     4   1.560
       453.544348      471.475460      227.604595     1     0     0     0     6   1.560
       443.500663      374.397220       51.653981     1     0     0     0     4   1.560
       263.027070      484.669825      444.887301     1     0     0     0     3   1.560
       457.796867      347.390961      469.592454     1     0     0     0     7   1.560
       117.576870      197.878252      110.802671     1     0     0     0     5   1.560
       352.758659      394.138479      473.423805     1     0     0     0     2   1.560
       387.912627      190.920820      423.928521     1     0     0     0     7   1.560
       409.373756       53.827320      383.384407     1     0     0     0     2   1.560
        45.065608      492.020152      421.354760     1     0     0     0     4   1.560
       368.805115      425.501610      132.758205     1     0     0     0     7   1.560
       408.737304      178.844149      292.102716     1     0     0     0     5   1.560
        34.695196      319.307158      439.938558     1     0     0     0     1   1.560
       160.106378      267.225249      185.095069     1     0     0     0     6   1.560
        19.634222      381.421590       27.398537     1     0     0     0     1   1.560
       141.476865      438.935218       57.469845     1     0     0     0     5   1.560
       365.985167       14.430830       29.321883     1     0     0     0     5   1.560
       177.094581      331.617349      260.357158     1     0     0     0     3   1.560
       161.169488      427.372382      349.635642     1     0     0     0     1   1.560
       137.804431      235.212200      124.768580     1     0     0     0     7   1.560
       179.505427      110.979635      451.450881     1     0     0     0     2   1.560
       237.091296      322.855693      368.129409     1     0     0     0     5   1.560
       434.140768      236.425371      224.027323     1     0     0     0     7   1.560
       314.270856      113.830001      425.544984     1     0     0     0     1   1.560
       427.507849      251.107796      432.499849     1     0     0     0     2   1.560
       200.383019      115.881817      149.786208     1     0     0     0     3   1.560
       157.394004      162.148330      171.746759     1     0     0     0     3   1.560
       310.419063      202.041177      198.304185     1     0     0     0     7   1.560
        48.474491      421.270192      389.506235     1     0     0     0     3   1.560
       124.537183      342.360085       84.621905     1     0     0     0     7   1.560
       449.041201      474.114939      309.045534     1     0     0     0     5   1.560
       315.224453      464.015491      175.114756     1     0     0     0     5   1.560
       436.646544       41.343092      461.205236     1     0     0     0     6   1.560
       144.383585       89.620164       87.013002     1     0     0     0     3   1.560
       173.107084      233.246502      243.643885     1     0     0     0     7   1.560
       327.006865      131.547736      465.285443     1     0     0     0     1   1.560
        75.561975      294.744197      166.856410     1     0     0     0     7   1.560
       110.714446       90.727399      160.833803     1     0     0     0     7   1.560
       197.263571      365.311757      452.544941     1     0     0     0     6   1.560
       115.424728      261.554804      214.994570     1     0     0     0     8   1.560
       221.653278      296.419095       99.162990     1     0     0     0     5   1.560
       266.159677       23.921966      443.147509     1     0     0     0     4   1.560
       123.268006      147.907051      286.000585     1     0     0     0     7   1.560
       292.033349      242.912062      490.997779     1     0     0     0     3   1.560
       296.087814      294.896740      213.076441     1     0     0     0     2   1.560
       272.815134      126.840521      136.546391     1     0     0     0     1   1.560
       225.879374      465.104633      400.220526     1     0     0     0     7   1.560
       319.571337      461.942204      494.238792     1     0     0     0     1   1.560
       453.417684       83.778829       44.755768     1     0     0     0     3   1.560
       129.436891      169.922632      345.343019     1     0     0     0     5   1.560
       433.819984       29.630972      210.920839     1     0     0     0     4   1.560
       447.529517      423.024041      297.023005     1     0     0     0     3   1.560
       171.779793      221.270753      233.231566     1     0     0     0     1   1.560
       368.438941      111.439785      254.735922     1     0     0     0     6   1.560
       362.445681      375.897083      490.944088     1     0     0     0     8   1.560
       332.302622      234.729664      279.981093     1     0     0     0     8   1.560
       488.839896      298.815097      289.420387     1     0     0     0     1   1.560
        90.901322      167.444792      491.054654     1     0     0     0     3   1.560
       390.041044      167.435680      442.013511     1     0     0     0     6   1.560
       253.181508      312.514791      496.873218     1     0     0     0     2   1.560
       124.428622      484.329556      365.616965     1     0     0     0     4   1.560
       169.669095      184.419375       48.961788     1     0     0     0     8   1.560
       283.143226      278.176894      323.385252     1     0     0     0     8   1.560
       276.640945       21.847389      277.028516     1     0     0     0     6   1.560
       315.781218      325.306873      457.885904     1     0     0     0     3   1.560
       143.527082      404.173394        4.474904     1     0     0     0     7   1.560
       225.421763      384.902660      443.638777     1     0     0     0     7   1.560
        64.404756       34.071867      364.082241     1     0     0     0     6   1.560
        50.095521      177.779564      354.517551     1     0     0     0     8   1.560
       323.220814      281.937943      399.526463     1     0     0     0     1   1.560
       371.025045       68.632799      191.280227     1     0     0     0     3   1.560
       406.353576      332.959912       42.801477     1     0     0     0     5   1.560
       149.245017      399.539319      293.769658     1     0     0     0     5   1.560
        24.368901       85.681064       23.454428     1     0     0     0     1   1.560
       128.790567       98.555596      319.651514     1     0     0     0     6   1.560
       116.888372      423.789477      247.473113     1     0     0     0     8   1.560
       141.488347      461.138285      411.280762     1     0     0     0     6   1.560
       481.065294      387.308271       32.759319     1     0     0     0     3   1.560
       341.876709       70.211156      241.928135     1     0     0     0     2   1.560
       327.563782      493.080200       54.251593     1     0     0     0     6   1.560
       103.217337      382.402140      246.788650     1     0     0     0     5   1.560
       433.671671      315.362027       73.410272     1     0     0     0     4   1.560
        79.230889      356.875845      303.763484     1     0     0     0     7   1.560
       244.787995      449.435060      183.576613     1     0     0     0     6   1.560
       283.377575      319.984600       56.728764     1     0     0     0     7   1.560
       281.605268      450.361113       61.101546     1     0     0     0     1   1.560
       101.856438       96.522653       25.547441     1     0     0     0     2   1.560
       256.874040      366.746659       54.023301     1     0     0     0     7   1.560
       192.914015       73.830732      113.949414     1     0     0     0     5   1.560
       337.884613       87.657807      161.361207     1     0     0     0     4   1.560
       345.514364      180.101125      400.694634     1     0     0     0     1   1.560
       175.292002       72.638351       88.902020     1     0     0     0     8   1.560
       362.303111       59.218491      495.708042     1     0     0     0     8   1.560
       433.654955      173.145630      188.918853     1     0     0     0     3   1.560
       222.148813      450.536207        7.585373     1     0     0     0     1   1.560
       429.558215      367.491097      385.867331     1     0     0     0     1   1.560
       231.931051      166.566083       22.385256     1     0     0     0     7   1.560
       229.487127      189.296819       63.656530     1     0     0     0     4   1.560
        53.971595      481.260884      468.174601     1     0     0     0     7   1.560
       137.635428      141.590218      337.780633     1     0     0     0     4   1.560
       441.011226      331.426415      357.588391     1     0     0     0     8   1.560
       217.734631      499.152112      365.675060     1     0     0     0     5   1.560
       203.884529      270.842473        9.558012     1     0     0     0     2   1.560
        95.307165      116.275380      257.069792     1     0     0     0     6   1.560
       307.692231       84.516908      400.773093     1     0     0     0     6   1.560
       431.433397      222.544601      322.287135     1     0     0     0     2   1.560
       230.072340      443.778309      176.026544     1     0     0     0     1   1.560
       253.080387       47.222931      219.613986     1     0     0     0     3   1.560
        79.235250      299.909627      303.763733     1     0     0     0     5   1.560
       232.628243      479.690068       34.320245     1     0     0     0     6   1.560
       119.624125      409.642637       35.606206     1     0     0     0     3   1.560
       268.277586      240.085477      108.365720     1     0     0     0     3   1.560
       206.847227       65.919623      446.138573     1     0     0     0     7   1.560
       214.577152      496.428329      250.697722     1     0     0     0     6   1.560
        70.131049      194.472876      482.307394     1     0     0     0     4   1.560
        80.653345      445.121463      232.557909     1     0     0     0     8   1.560
       386.242237      298.911702      345.530817     1     0     0     0     6   1.560
       204.042626      367.135514      346.786566     1     0     0     0     5   1.560
       127.581097       32.414165      366.063191     1     0     0     0     2   1.560
       126.113342      348.010678      116.415085     1     0     0     0     7   1.560
       397.859331      110.702224      197.003790     1     0     0     0     2   1.560
       300.288174      235.566851      230.013861     1     0     0     0     2   1.560
       185.580085      261.810207      146.392146     1     0     0     0     7   1.560
       206.934109      205.610667       46.908432     1     0     0     0     7   1.560
       152.389836      359.582051      178.903942     1     0     0     0     5   1.560
       158.278740       60.453833      304.260163     1     0     0     0     3   1.560
       223.445512      449.103920      197.032934     1     0     0     0     1   1.560
       491.707273      103.319665      269.903942     1     0     0     0     4   1.560
        12.009560      399.177441      400.869073     1     0     0     0     4   1.560
       469.067838      294.169610      387.559860     1     0     0     0     1   1.560
        48.678597      201.730386      276.316122     1     0     0     0     3   1.560
       374.260425      447.844721      477.144392     1     0     0     0     6   1.560
       419.784823      281.509434      251.932720     1     0     0     0     8   1.560
       470.324774      264.205428      136.119094     1     0     0     0     2   1.560
       470.464744      490.076168      287.511175     1     0     0     0     6   1.560
       131.982036      352.536470      217.806055     1     0     0     0     5   1.560
       311.517146      236.409940       14.866760     1     0     0     0     2   1.560
       393.508831      174.739419      426.327812     1     0     0     0     4   1.560
       404.547253      355.959915      495.936662     1     0     0     0     7   1.560
         1.157296       78.556155      430.114866     1     0     0     0     5   1.560
        10.233433      411.124022      242.363408     1     0     0     0     8   1.560
       106.584451       63.680859       93.910602     1     0     0     0     7   1.560
       379.267086      183.799046      224.683821     1     0     0     0     1   1.560
       141.963000      109.426066      344.842477     1     0     0     0     1   1.560
       293.979704      426.777180      144.425513     1     0     0     0     5   1.560
       257.267428      393.910581      282.978230     1     0     0     0     8   1.560
       349.629428      453.093715      226.121924     1     0     0     0     2   1.560
       433.140296      245.528112      132.392904     1     0     0     0     6   1.560
       126.492527      301.264402       23.669830     1     0     0     0     5   1.560
       186.579110      376.008459      249.240408     1     0     0     0     4   1.560
       308.681891      176.942091      409.931481     1     0     0     0     2   1.560
       476.997951       39.982273       38.013864     1     0     0     0     3   1.560
        64.769163       32.315573      164.987081     1     0     0     0     4   1.560
       450.650708      185.684634      133.747058     1     0     0     0     5   1.560
        19.181626      479.007439      355.703533     1     0     0     0     2   1.560
       157.084590      448.612733      144.504341     1     0     0     0     5   1.560
       473.855681      294.873491      213.657055     1     0     0     0     8   1.560
       402.446811      236.630350      491.032430     1     0     0     0     5   1.560
       246.016998       42.651632      264.355335     1     0     0     0     7   1.560
       170.117872      362.670244      202.492279     1     0     0     0     1   1.560
       199.529790       54.854700      155.960897     1     0     0     0     7   1.560
       319.353980      139.240671      340.174249     1     0     0     0     6   1.560
       225.173724      299.893520      339.903866     1     0     0     0     2   1.560
         7.123913        8.511242      121.460679     1     0     0     0     1   1.560
       348.336192      157.031173      250.506557     1     0     0     0     6   1.560
       476.080913      480.667655      162.423256     1     0     0     0     7   1.560
       120.554145      382.040376      396.931970     1     0     0     0     6   1.560