ITEM: TIMESTEP
0
ITEM: NUMBER OF ATOMS
        7883
ITEM: BOX BOUNDS pp pp pp
  0.0000000E+00   500.000000000000     
  0.0000000E+00   500.000000000000     
  0.0000000E+00   500.000000000000     
ITEM: ATOMS x y z nV nH f3 f4 orient
       138.768507        9.951620      231.617818     1     0     0     0     6
       369.586903      300.607560      449.976962     1     0     0     0     3
       328.780372      173.104276      313.118210     1     0     0     0     2
       195.056198        5.578402      226.227427     1     0     0     0     4
        64.227755       88.745233      197.342598     1     0     0     0     2
       473.768102      499.436057      164.794345     1     0     0     0     5
       359.591052      299.734917      183.451402     1     0     0     0     2
       309.047503       48.212360      448.372305     1     0     0     0     8
       383.079896      106.259595       39.229378     1     0     0     0     5
       132.030268       69.122702       38.170959     1     0     0     0     1
       270.711283      173.588922      460.998865     1     0     0     0     8
        60.981105      389.317830      409.882533     1     0     0     0     5
       450.176018      166.050322      486.095946     1     0     0     0     1
       465.331074      318.635599      357.958045     1     0     0     0     3
        36.482556      468.667986      100.373188     1     0     0     0     3
       498.366637      413.640900      464.969295     1     0     0     0     4
       333.187981       10.461527      372.229234     1     0     0     0     6
       288.846691      329.263499      347.318997     1     0     0     0     7
       317.665885       78.219787      269.637373     1     0     0     0     2
        43.757928      107.647228      435.158751     1     0     0     0     3
       217.733334       61.157701      336.881451     1     0     0     0     6
        84.519189      477.097667      265.744381     1     0     0     0     7
       289.138699      289.860727      382.942878     1     0     0     0     1
       384.804168      289.461087      476.595263     1     0     0     0     1
       259.668297      301.531487      362.748841     1     0     0     0     6
       283.430419        6.751879      443.287709     1     0     0     0     2
       424.086638      276.626483      344.276441     1     0     0     0     2
       243.996746       21.910614       10.343648     1     0     0     0     7
       141.760925      193.580929      389.453671     1     0     0     0     4
       297.754265      150.598766      280.585003     1     0     0     0     8
       355.882690      335.122332      183.490569     1     0     0     0     3
        49.121175      420.368213      384.070134     1     0     0     0     7
       264.280321       90.580902        0.012590     1     0     0     0     1
         0.674223      301.886757      447.720223     1     0     0     0     8
       205.637875      423.478077       87.911662     1     0     0     0     7
       145.168800        8.610154       10.124375     1     0     0     0     8
       114.247403      387.816348      496.970261     1     0     0     0     1
        34.691233      241.495248      154.191359     1     0     0     0     2
       423.228135      175.312144      202.325646     1     0     0     0     7
       346.751945      380.185961      476.992189     1     0     0     0     2
       126.890315      207.600535       20.787732     1     0     0     0     8
       303.708961      249.356085      295.513144     1     0     0     0     2
       110.946240        0.066271       52.627562     1     0     0     0     4
       243.042830       73.721929      202.246120     1     0     0     0     2
       328.496975      321.561037      206.263108     1     0     0     0     5
       296.109618      238.680103      271.507573     1     0     0     0     5
        66.988142      284.227207      435.810186     1     0     0     0     7
       108.257834      106.867185      430.660282     1     0     0     0     3
       310.374469      498.202766      236.095754     1     0     0     0     2
        82.570481       86.703459       80.883221     1     0     0     0     5
       213.356568      108.412853      274.226602     1     0     0     0     3
       323.324641      431.979786       90.190516     1     0     0     0     2
       143.159930      231.947155       79.116426     1     0     0     0     4
       383.008222      195.431084      474.419498     1     0     0     0     7
       429.817892      277.973508      132.334223     1     0     0     0     6
       250.241033      147.640990      343.629946     1     0     0     0     7
        69.051726      157.956495      438.478647     1     0     0     0     2
       121.235767       50.685375        2.067772     1     0     0     0     3
       216.665368      406.037228      164.742191     1     0     0     0     2
         2.165354      341.127327       35.803158     1     0     0     0     3
       349.618445       68.551408       94.692260     1     0     0     0     7
       495.992391      203.602340      282.572770     1     0     0     0     6
       326.471245      154.835338      115.458554     1     0     0     0     6
       434.825086      417.452504       72.651426     1     0     0     0     8
       322.317921      133.769540      421.571437     1     0     0     0     2
        91.221118      240.874928      188.524917     1     0     0     0     5
       292.991758      497.385641       75.959781     1     0     0     0     1
       390.820959      419.537590      467.350979     1     0     0     0     7
       340.101351       23.453189      257.516620     1     0     0     0     4
       276.450674      270.845412      331.086842     1     0     0     0     6
       355.944120      187.220138      419.223529     1     0     0     0     1
       360.274499      177.207102      415.128544     1     0     0     0     6
       279.237399      339.258757      314.109590     1     0     0     0     7
       378.322801      356.779842      308.947968     1     0     0     0     3
       200.906864      101.249894      119.768402     1     0     0     0     1
       256.231684      497.054534      449.461274     1     0     0     0     3
       427.572328      317.627136       25.855124     1     0     0     0     8
       369.284586      459.178374      230.555319     1     0     0     0     1
       398.905618      480.428386      319.468650     1     0     0     0     7
       260.263288        0.240879      365.306031     1     0     0     0     8
       182.093074      214.208485       82.528224     1     0     0     0     3
       300.408695      165.438333      258.444011     1     0     0     0     3
         0.300936      220.591142      428.845124     1     0     0     0     8
       200.792005      236.011761      376.150161     1     0     0     0     5
       137.173029      218.455117      174.346832     1     0     0     0     1
       349.303696      170.996278       48.900194     1     0     0     0     2
        91.359287      300.809918      436.896591     1     0     0     0     8
       131.012111      274.659306      369.736709     1     0     0     0     6
       452.873033      145.754598      218.803515     1     0     0     0     5
       460.439157      462.878453       60.122422     1     0     0     0     8
       176.594291      354.273091      391.115402     1     0     0     0     4
       139.413464      357.167060      213.955002     1     0     0     0     3
       494.417256      102.389568        6.468635     1     0     0     0     2
       393.864573      315.101726      497.183084     1     0     0     0     4
       262.378319      359.172298       56.106590     1     0     0     0     6
       343.009332      331.113571      370.074318     1     0     0     0     2
       335.871638      289.478641      349.550198     1     0     0     0     8
       421.159585      467.596221      444.192051     1     0     0     0     7
       437.591122      111.011809       52.298796     1     0     0     0     4
       184.074748      196.161805      429.900765     1     0     0     0     6
       117.461513      367.911713        6.669304     1     0     0     0     4
       413.335958      448.415165      101.086331     1     0     0     0     3
       478.737923      267.166900      342.850430     1     0     0     0     3
        32.649774      237.635112      344.760397     1     0     0     0     1
       315.057058      253.835001      350.204001     1     0     0     0     6
       281.417408      371.094021      259.675709     1     0     0     0     6
       418.610608        7.082893      305.575532     1     0     0     0     3
        13.319094      173.598078        3.235386     1     0     0     0     2
        42.610454      347.710607       54.461498     1     0     0     0     7
       436.949345       44.994390      214.206334     1     0     0     0     3
       239.067597      190.702028      142.061928     1     0     0     0     2
       219.101627        0.944893      115.606209     1     0     0     0     6
       102.024316      458.075552      378.977964     1     0     0     0     2
        10.897326       47.440634      444.238585     1     0     0     0     1
       438.332926      150.089848      122.397671     1     0     0     0     8
       112.519980      131.711514      254.459921     1     0     0     0     4
       434.488035      123.999482      339.248414     1     0     0     0     3
       448.891305       15.817139      398.616590     1     0     0     0     2
        36.402783      475.926034      144.273350     1     0     0     0     6
       210.040857      472.324877       67.442600     1     0     0     0     8
       321.538087      136.722984      271.796593     1     0     0     0     5
       103.530362       84.749750      334.387835     1     0     0     0     5
       217.789931      194.787631      430.607581     1     0     0     0     8
       420.345888      194.888129       80.750591     1     0     0     0     1
       163.814476      134.304215      388.952914     1     0     0     0     5
       317.930134      475.203589      459.884236     1     0     0     0     6
       109.471476       51.112925      445.540974     1     0     0     0     7
        56.703691      262.690084      485.432485     1     0     0     0     6
       148.295570      437.774170      351.451911     1     0     0     0     6
        67.677962       86.834539      179.870398     1     0     0     0     5
       295.976791       51.101899      254.140594     1     0     0     0     4
       137.007832        3.309108      402.971662     1     0     0     0     6
       389.729587      203.418933      415.971195     1     0     0     0     7
       486.599340      472.850354      487.438537     1     0     0     0     1
        47.323730      281.500786      387.800465     1     0     0     0     6
       303.598057      366.436866      396.825568     1     0     0     0     6
       251.274523      303.761234      394.089818     1     0     0     0     6
       352.206633      376.965836       63.472078     1     0     0     0     7
         1.751954      312.036701      238.123415     1     0     0     0     6
       300.568123      347.394381      468.910437     1     0     0     0     2
       311.242881      248.241186       24.878397     1     0     0     0     2
        52.903811       33.195691      124.200662     1     0     0     0     7
       146.148586       90.430329      324.383388     1     0     0     0     5
       157.527510      225.749917      452.634685     1     0     0     0     4
       106.064555      290.578941      246.814419     1     0     0     0     3
        62.491275      103.622739      107.064185     1     0     0     0     1
       104.489396       74.230016      386.457815     1     0     0     0     5
        48.970775       10.867951      466.542856     1     0     0     0     5
        61.353362       75.947049       41.968295     1     0     0     0     6
        99.165205      447.687073      259.827089     1     0     0     0     1
       255.881890      302.644468      145.796689     1     0     0     0     5
       288.881983       71.096733      433.828309     1     0     0     0     1
       452.569994      412.672861      172.660172     1     0     0     0     2
       183.563577       56.702717      289.659437     1     0     0     0     5
       178.593379       69.672410      435.137420     1     0     0     0     4
       459.234671      467.099348      219.645886     1     0     0     0     5
       260.053705       95.977361      497.709277     1     0     0     0     5
       271.769328      227.115944      247.981526     1     0     0     0     2
       187.922676      417.484205      264.902721     1     0     0     0     6
       268.728117      414.648997       75.960377     1     0     0     0     5
       314.109246      401.133766      165.956912     1     0     0     0     4
       255.214183      281.919819      315.161357     1     0     0     0     1
       218.802535      253.997791      149.107514     1     0     0     0     5
       200.167180      172.613866      124.587178     1     0     0     0     4
       270.826325      392.656764      462.621634     1     0     0     0     4
       218.228956      445.707638        0.718862     1     0     0     0     8
        79.654281      181.493339      109.428466     1     0     0     0     5
       290.944580      456.238954      290.541919     1     0     0     0     6
       325.558535       64.695417      245.972221     1     0     0     0     2
       400.478226      444.499126       49.587208     1     0     0     0     4
        86.596539      488.022538       80.456174     1     0     0     0     5
       140.727655      174.744794      328.929227     1     0     0     0     3
        83.509015      183.659975      499.629232     1     0     0     0     2
       424.088255       48.193036      347.337463     1     0     0     0     3
       166.606126      143.028561       93.629249     1     0     0     0     7
       488.944908      474.282633      405.415804     1     0     0     0     6
        67.104669       80.738058      303.616894     1     0     0     0     7
         0.172547        6.120680      360.140300     1     0     0     0     2
       425.527182      220.596444      340.636624     1     0     0     0     5
         6.291793      476.184318      352.219986     1     0     0     0     2
        35.332163      443.118666      110.540236     1     0     0     0     7
       177.070093      473.760768      221.656797     1     0     0     0     2
        53.855325      392.678006      167.420470     1     0     0     0     2
        55.216272      474.783892      179.843310     1     0     0     0     7
        59.076646      428.265762       11.871367     1     0     0     0     3
       405.619680      336.206821       28.835975     1     0     0     0     8
       199.912894       67.189630      383.536621     1     0     0     0     2
        97.305377      294.006384      232.882495     1     0     0     0     2
        74.671531      359.738901      297.017993     1     0     0     0     7
       203.435665      479.452903      211.091487     1     0     0     0     7
        16.437751      411.450541       82.969727     1     0     0     0     3
       280.867711       80.577400      232.510562     1     0     0     0     2
        72.768034      169.645070       36.037342     1     0     0     0     8
        65.885080      471.697671      310.367675     1     0     0     0     6
       473.673696      247.499358       75.110844     1     0     0     0     1
       301.468968      208.733514      207.337931     1     0     0     0     7
       457.075222       31.652144      147.791717     1     0     0     0     7
       101.870248      125.102130      262.941943     1     0     0     0     4
       142.557477      304.156120      283.283188     1     0     0     0     3
       164.141320       47.628650      238.851970     1     0     0     0     8
       175.541015      221.386001       90.058527     1     0     0     0     5
       336.269111       42.624582      447.145728     1     0     0     0     8
        67.651087       60.212105      100.906140     1     0     0     0     3
        94.267736      246.271805      140.826449     1     0     0     0     1
       415.861590      234.811932      348.468035     1     0     0     0     1
        72.428955      353.091620      469.432550     1     0     0     0     5
       483.220025       50.219492      268.490869     1     0     0     0     2
       310.294459      154.026869      347.113487     1     0     0     0     2
        24.773113      451.883227      453.316501     1     0     0     0     6
        66.656493      182.524426       35.818584     1     0     0     0     6
       422.703087      272.516101      112.274063     1     0     0     0     7
       180.749627      414.614135      313.335433     1     0     0     0     7
       135.617274      318.616094      320.634542     1     0     0     0     8
       456.744988      460.834638       25.311235     1     0     0     0     3
       279.422926      363.215523      402.411681     1     0     0     0     5
       196.222820       45.680509      443.521632     1     0     0     0     6
         2.516033      138.085421      118.086304     1     0     0     0     7
        44.957991      213.719120      170.009593     1     0     0     0     3
       172.157583       21.286756      370.150716     1     0     0     0     6
       380.923227       22.635045      153.400256     1     0     0     0     4
       218.259608      370.325925      433.615660     1     0     0     0     5
       403.554797      225.697033      359.132322     1     0     0     0     2
        14.115552      103.803014        7.295710     1     0     0     0     6
         0.771102      253.221519      235.831753     1     0     0     0     5
       238.326267      458.756517      222.533881     1     0     0     0     2
        37.233982      499.059334      135.354566     1     0     0     0     1
         2.181683      109.214354       22.032256     1     0     0     0     5
       156.513466      343.283098      157.090843     1     0     0     0     5
       451.549872      295.243131      248.840919     1     0     0     0     7
        56.015648      106.115223      396.013829     1     0     0     0     6
        79.994431      168.903354       34.233417     1     0     0     0     2
       445.066709       13.108639      258.539706     1     0     0     0     5
       464.709781        3.835951      408.530646     1     0     0     0     3
       494.796957      162.395387        8.543939     1     0     0     0     1
       427.373673      303.579917      376.896616     1     0     0     0     5
        24.788152      166.486366      211.893840     1     0     0     0     8
       129.226414      335.056428      462.494173     1     0     0     0     2
        54.954675      178.621173      141.405143     1     0     0     0     2
       498.200014      151.010745      160.126996     1     0     0     0     1
       255.980850      167.491526      292.007710     1     0     0     0     3
        75.598684      163.753562      478.761546     1     0     0     0     3
        43.129748      244.404023      196.481082     1     0     0     0     2
       300.207632      368.469705      464.112548     1     0     0     0     4
       214.662298      245.143055      298.507534     1     0     0     0     2
        48.451849      231.122801        3.885247     1     0     0     0     3
       475.549422      376.836368      130.113062     1     0     0     0     3
        16.815880        3.398225      332.288082     1     0     0     0     5
       423.787169      253.460491       73.705758     1     0     0     0     5
       288.125426       41.295862      428.906125     1     0     0     0     4
       205.236916      459.673669      135.411135     1     0     0     0     5
       252.406873      474.654194      240.497577     1     0     0     0     2
       147.832906      211.277821      414.946012     1     0     0     0     7
        52.616287       36.431921       16.226739     1     0     0     0     2
        19.933450      228.594549      228.203556     1     0     0     0     1
       138.742415      246.139893      185.823670     1     0     0     0     2
       138.732212      169.522350       26.013063     1     0     0     0     4
        53.415563      453.936010        5.220789     1     0     0     0     6
       150.623733      371.533416      121.696206     1     0     0     0     2
        15.898115      180.363159      141.761262     1     0     0     0     7
       289.454134      331.682801      383.264399     1     0     0     0     8
       339.453206      187.871221      413.655052     1     0     0     0     3
        50.944487      470.031803      114.835120     1     0     0     0     4
        82.960970      311.660110      464.266727     1     0     0     0     7
       491.211435      169.223221      166.177239     1     0     0     0     3
       150.554701      172.842062      442.861080     1     0     0     0     2
       234.525905      286.957555       28.552378     1     0     0     0     4
       244.399173       37.841079        2.684192     1     0     0     0     4
       478.561037      299.249398      493.608714     1     0     0     0     5
       352.041930      227.839782      226.113019     1     0     0     0     8
       114.858220       86.756096      321.323032     1     0     0     0     8
        15.346602      425.709460      401.848580     1     0     0     0     2
       312.975127      107.613674      129.201125     1     0     0     0     1
       214.405388      387.910744      342.839314     1     0     0     0     5
       384.799043      338.320784      464.000358     1     0     0     0     1
       149.034273      471.609078      367.857821     1     0     0     0     7
       438.908068       35.954156      362.066533     1     0     0     0     4
       119.281133      314.190635      453.906913     1     0     0     0     3
       117.094872      166.833296      198.687954     1     0     0     0     8
        99.901626      116.937639      237.201630     1     0     0     0     8
       311.298657      137.328385      127.661199     1     0     0     0     7
       375.194347      157.103999      421.331804     1     0     0     0     3
       201.459439      117.375164      375.621086     1     0     0     0     6
       211.504381      454.206465      475.400563     1     0     0     0     5
        34.798489      363.740159      113.607190     1     0     0     0     6
        45.642758      212.082609      353.056430     1     0     0     0     1
       182.139955       40.126259      343.829397     1     0     0     0     7
       453.749686      333.860808       64.967858     1     0     0     0     6
       355.349519      292.683435      262.380526     1     0     0     0     5
       221.834555       65.829387      345.224861     1     0     0     0     6
       242.033364      346.602546      133.024676     1     0     0     0     3
       456.499947      165.182355      157.926370     1     0     0     0     5
       166.485640       94.995798      496.334336     1     0     0     0     7
        86.308813      483.001829      338.559968     1     0     0     0     8
        48.975416       75.727367      249.209385     1     0     0     0     5
       464.858175      287.451561      200.337186     1     0     0     0     1
       484.400747       49.425896      321.031554     1     0     0     0     4
       392.160863       19.799956      257.680844     1     0     0     0     3
       362.719457      139.457909      213.595024     1     0     0     0     5
       210.833996      485.162865      153.812698     1     0     0     0     4
       104.961619      416.727379      385.473331     1     0     0     0     6
       280.020502      283.338806        7.716980     1     0     0     0     8
       352.431897      180.331513      487.914887     1     0     0     0     2
         6.858931       15.020048      417.358013     1     0     0     0     1
       365.799592       11.956012      409.205866     1     0     0     0     1
         6.487103      122.128042      120.945092     1     0     0     0     5
        91.865289      350.895483      401.777513     1     0     0     0     4
       335.655776      126.036035       33.243958     1     0     0     0     1
        87.698642      115.067048        1.327037     1     0     0     0     4
       338.189489      130.306932      475.171979     1     0     0     0     7
       362.353576      240.593395      343.648353     1     0     0     0     2
       327.835085      219.056844      369.518896     1     0     0     0     3
        20.211135      435.698295      342.276796     1     0     0     0     4
        55.355599      492.001646       39.205471     1     0     0     0     7
       358.339484      222.934544      285.095745     1     0     0     0     5
       265.905827      105.690955      141.461604     1     0     0     0     3
       315.042768      162.822330      213.077379     1     0     0     0     1
       319.712353      249.026636      198.683572     1     0     0     0     6
       142.340996      468.244994      313.841705     1     0     0     0     1
       210.175251      266.723928       45.915598     1     0     0     0     3
       464.093116       85.656476      463.528173     1     0     0     0     2
        77.149808      176.153697      151.799361     1     0     0     0     8
        45.246042      439.571757      486.893954     1     0     0     0     3
       479.269796      272.598579      376.986018     1     0     0     0     8
         8.829237      278.425888      413.869927     1     0     0     0     8
       319.693362      356.872071      387.678414     1     0     0     0     4
       350.047471      169.678969      387.872482     1     0     0     0     1
       201.155322      274.424193      261.960955     1     0     0     0     2
       410.249182       13.648752      340.533080     1     0     0     0     6
       206.687512      292.916111      137.581430     1     0     0     0     3
       121.564758       32.273432      492.712587     1     0     0     0     1
       427.518386      100.077011      188.699770     1     0     0     0     6
        88.179062        4.826951       48.353367     1     0     0     0     1
       400.687005      284.925852       61.981611     1     0     0     0     7
       382.688738      172.766118      498.843460     1     0     0     0     8
       274.358164      152.117888      433.423657     1     0     0     0     7
       343.514965      315.404929      361.853977     1     0     0     0     6
       128.566974      292.162992      167.736296     1     0     0     0     3
       415.750816      201.229793       50.000422     1     0     0     0     1
       122.537842       79.298847      340.402965     1     0     0     0     7
       472.897211      401.561993      263.512209     1     0     0     0     7
       333.573701      122.742606      122.948010     1     0     0     0     3
        69.125643      415.131902      408.648111     1     0     0     0     6
       351.271910      174.414746       65.008310     1     0     0     0     4
       274.166083      290.015815      493.449779     1     0     0     0     7
       471.149109      458.166920       88.869026     1     0     0     0     5
       185.886354       63.548089      454.426499     1     0     0     0     7
       226.699209      274.327132      414.083108     1     0     0     0     8
       372.266781      324.187753      106.546399     1     0     0     0     1
       440.380865      341.224023      157.490309     1     0     0     0     8
       280.785415      441.008782      313.985316     1     0     0     0     6
       270.425206       87.522368      291.515860     1     0     0     0     3
       120.748564       93.062229      214.853543     1     0     0     0     1
       450.153551       10.225874      129.347548     1     0     0     0     6
       372.189382      420.801348      177.114248     1     0     0     0     2
       374.557024      332.771082      122.901617     1     0     0     0     6
       406.312236      317.514361      111.251481     1     0     0     0     1
       234.401488      149.389577       56.073621     1     0     0     0     3
       469.440264      390.974847      193.606361     1     0     0     0     6
       155.628806      371.842362      252.758226     1     0     0     0     7
       296.192049      220.376995      132.815924     1     0     0     0     3
       214.993238       91.490945       55.682129     1     0     0     0     8
       273.366450      255.536918      397.573894     1     0     0     0     7
       481.392337      257.501988      476.353923     1     0     0     0     1
       105.808205      128.551677      418.407129     1     0     0     0     4
       456.821071      295.516195      295.017845     1     0     0     0     5
       112.882194       24.742102       17.162643     1     0     0     0     8
       118.872015      180.766707       73.886545     1     0     0     0     6
       280.061211      384.523501      439.960728     1     0     0     0     6
       155.805309      232.552769      280.684798     1     0     0     0     4
       409.360350      128.855289      238.067265     1     0     0     0     4
       381.719610      252.350478       26.809017     1     0     0     0     3
       379.837536      406.386685      334.686532     1     0     0     0     7