ITEM: TIMESTEP
0
ITEM: NUMBER OF ATOMS
        7878
ITEM: BOX BOUNDS pp pp pp
  0.0000000E+00   500.000000000000     
  0.0000000E+00   500.000000000000     
  0.0000000E+00   500.000000000000     
ITEM: ATOMS x y z f1 f2 f3 f4 orient radius
        54.051772       34.555179      206.007637     1     0     0     0     7   1.560
       446.790723      379.458501      314.580639     1     0     0     0     5   1.560
       253.070158      295.305472      449.938595     1     0     0     0     4   1.560
       164.824530      104.310913       45.011424     1     0     0     0     3   1.560
       457.799716      192.442563      293.989899     1     0     0     0     1   1.560
       485.290302      224.846381      271.410660     1     0     0     0     3   1.560
       449.346596       52.516606      329.345801     1     0     0     0     1   1.560
       260.912758      440.441740      296.034539     1     0     0     0     6   1.560
       159.189049      120.946866      354.284914     1     0     0     0     2   1.560
       379.897285      297.353424      221.899899     1     0     0     0     2   1.560
       368.886185      417.415766      227.514702     1     0     0     0     3   1.560
        35.477077      381.620634        7.167898     1     0     0     0     3   1.560
       473.360577      455.530655      441.824151     1     0     0     0     5   1.560
       146.337080      303.320667       43.892371     1     0     0     0     7   1.560
        27.582818      290.651166       66.434027     1     0     0     0     8   1.560
       308.195861      331.074982       18.075467     1     0     0     0     1   1.560
       357.330728      426.692760      319.137575     1     0     0     0     3   1.560
        85.598843       28.333481      321.623685     1     0     0     0     7   1.560
       367.042301      349.024985      352.860410     1     0     0     0     2   1.560
       107.742513      121.393793       64.814996     1     0     0     0     5   1.560
       159.858048      118.772845       46.812757     1     0     0     0     1   1.560
       356.086854      331.505234      229.076498     1     0     0     0     4   1.560
        17.678341      451.578541      158.411382     1     0     0     0     6   1.560
       348.477263      213.865776      385.997940     1     0     0     0     6   1.560
       163.118219      152.244456      163.731255     1     0     0     0     7   1.560
       340.293579      475.665278      450.074515     1     0     0     0     3   1.560
       296.510993      267.092267      290.246730     1     0     0     0     6   1.560
       431.932131      396.112685       69.753925     1     0     0     0     2   1.560
       208.146580      305.162554      128.309107     1     0     0     0     6   1.560
        46.651943      379.829174      123.044906     1     0     0     0     6   1.560
       275.037646      372.144480      132.383161     1     0     0     0     6   1.560
        98.298487      124.460996      128.488595     1     0     0     0     8   1.560
       464.857126      158.573173      214.208337     1     0     0     0     2   1.560
       360.718218      455.798325      425.061351     1     0     0     0     5   1.560
       373.838440      366.943817      216.295773     1     0     0     0     7   1.560
       162.488599      266.902745      269.497438     1     0     0     0     8   1.560
         8.956103       60.984113      489.799981     1     0     0     0     8   1.560
       481.910926      145.915192      190.372308     1     0     0     0     6   1.560
       476.044248       14.428294      113.914031     1     0     0     0     4   1.560
       175.327243      103.694203      328.863161     1     0     0     0     3   1.560
       142.885884      422.962967       17.621365     1     0     0     0     8   1.560
       363.639323      189.323509      403.270403     1     0     0     0     1   1.560
       398.267025      114.199595      196.088828     1     0     0     0     6   1.560
       122.803763      432.238579       64.750438     1     0     0     0     6   1.560
       186.908748      452.876080      196.411615     1     0     0     0     2   1.560
       249.103742      428.077563       64.114806     1     0     0     0     8   1.560
       199.971088      245.261320      249.920167     1     0     0     0     4   1.560
       478.733835       16.923542      496.328602     1     0     0     0     6   1.560
       207.870881       74.017964      166.687162     1     0     0     0     5   1.560
       154.397450      206.360948        6.979592     1     0     0     0     3   1.560
       230.521798      230.553635       41.677109     1     0     0     0     4   1.560
       171.733975      449.373032      154.162597     1     0     0     0     4   1.560
       275.247573      488.792221      386.369688     1     0     0     0     1   1.560
       341.747138      123.231418      330.104512     1     0     0     0     5   1.560
       119.205452       35.502217      197.213726     1     0     0     0     8   1.560
       141.898644      312.224590      393.439469     1     0     0     0     8   1.560
       463.566346      456.234926      414.591814     1     0     0     0     8   1.560
        38.893308       21.779172      417.797235     1     0     0     0     7   1.560
       108.482236      176.059673       56.585320     1     0     0     0     4   1.560
       153.485038      445.766173      199.901009     1     0     0     0     6   1.560
       115.926230      489.642159      211.635222     1     0     0     0     4   1.560
       363.361182      491.794733      412.300562     1     0     0     0     5   1.560
       206.550605      448.927259      121.046253     1     0     0     0     8   1.560
       256.122840      392.158004      104.480339     1     0     0     0     3   1.560
       363.395198      338.949123      144.350824     1     0     0     0     7   1.560
        59.769274      344.261861      170.340395     1     0     0     0     4   1.560
       127.205160      152.215881      143.270453     1     0     0     0     1   1.560
        98.142811       89.889233        3.848725     1     0     0     0     1   1.560
       490.318413      306.617634       68.943505     1     0     0     0     8   1.560
       322.769540      444.566902      353.609236     1     0     0     0     7   1.560
       254.358125      391.002083       51.258318     1     0     0     0     8   1.560
       380.323861      113.641219      225.039204     1     0     0     0     7   1.560
       244.125434        3.568457       25.900057     1     0     0     0     2   1.560
       351.177389      499.297152      205.994060     1     0     0     0     2   1.560
       382.259147      176.303532       71.831556     1     0     0     0     2   1.560
       385.328419      425.379920      262.207542     1     0     0     0     6   1.560
       330.939762      360.014638       39.948218     1     0     0     0     4   1.560
       253.903757      211.370453      344.012479     1     0     0     0     7   1.560
       154.857444       26.744169       25.432305     1     0     0     0     5   1.560
       279.472450      119.212971      162.308153     1     0     0     0     8   1.560
        83.834634      315.008754       43.147428     1     0     0     0     8   1.560
       248.964309       36.039234      378.180460     1     0     0     0     1   1.560
       270.414749      220.388569       87.394995     1     0     0     0     3   1.560
       332.538290      476.109993      195.991982     1     0     0     0     5   1.560
       412.714301      105.217208      174.902906     1     0     0     0     2   1.560
       312.843191      309.086611      427.650983     1     0     0     0     1   1.560
        40.241390       76.009867      233.219448     1     0     0     0     3   1.560
       230.948598       65.873795      140.501146     1     0     0     0     6   1.560
       150.567045      177.737009      284.874797     1     0     0     0     6   1.560
       333.434289      443.358296      486.380544     1     0     0     0     7   1.560
       181.369127      100.015032      435.996113     1     0     0     0     2   1.560
       462.806452      256.610930       61.924224     1     0     0     0     4   1.560
       499.375970      102.558957      385.271166     1     0     0     0     3   1.560
       472.385019      175.720162      234.197495     1     0     0     0     7   1.560
       274.718721      499.879880      447.296707     1     0     0     0     4   1.560
       380.535506      364.666703        2.725983     1     0     0     0     2   1.560
       456.572093      366.605097      284.168075     1     0     0     0     4   1.560
       497.895401      398.773552      110.421840     1     0     0     0     3   1.560
       398.857218       32.691885       58.994132     1     0     0     0     8   1.560
       358.067461      415.030813       42.500190     1     0     0     0     6   1.560
       382.466796      487.512377      476.844742     1     0     0     0     4   1.560
        74.138919      191.747714      232.810949     1     0     0     0     3   1.560
       130.057699        5.933089      352.343857     1     0     0     0     3   1.560
        17.326706      227.724931      435.712970     1     0     0     0     3   1.560
       492.627512      305.969907      355.092910     1     0     0     0     2   1.560
       367.130439      184.685464      433.216301     1     0     0     0     5   1.560
       243.650906      215.640012      456.745860     1     0     0     0     2   1.560
       143.259225       53.011770       54.029685     1     0     0     0     8   1.560
       110.763814      483.605196      464.688116     1     0     0     0     5   1.560
       382.576660      100.298106      143.385614     1     0     0     0     3   1.560
       266.663551       69.772094      125.578384     1     0     0     0     3   1.560
       126.978131      181.834328      251.263193     1     0     0     0     6   1.560
       281.058009       60.226365        3.967791     1     0     0     0     5   1.560
        16.640903      417.379057       61.135674     1     0     0     0     5   1.560
       153.173349      244.628429      289.016114     1     0     0     0     5   1.560
       244.493966      470.637910      408.336539     1     0     0     0     6   1.560
       185.536854      207.171030      305.450397     1     0     0     0     1   1.560
       414.531803      170.973548      478.001913     1     0     0     0     5   1.560
       347.094037      420.642099      450.957286     1     0     0     0     5   1.560
       231.750025      495.819813       40.366609     1     0     0     0     5   1.560
       160.426519      243.488461      403.930715     1     0     0     0     1   1.560
       444.640446       40.363773      173.881168     1     0     0     0     2   1.560
        79.869663       76.544294       56.094448     1     0     0     0     6   1.560
        51.642146      102.095197      119.825253     1     0     0     0     8   1.560
        31.039177      464.942721      251.310011     1     0     0     0     6   1.560
       296.843567      173.509999      442.718102     1     0     0     0     2   1.560
        19.329061        0.434077       95.179826     1     0     0     0     7   1.560
       313.257470       24.271976      173.190622     1     0     0     0     3   1.560
       439.315191      430.707894      327.033145     1     0     0     0     5   1.560
       131.866344      419.994652      393.247161     1     0     0     0     8   1.560
       265.040031       45.680038      378.024926     1     0     0     0     7   1.560
       227.865126      496.276085       71.056551     1     0     0     0     1   1.560
       494.460491      250.678968      193.228925     1     0     0     0     6   1.560
       386.384484      407.012042      144.705401     1     0     0     0     1   1.560
       459.562436      444.283163      393.746503     1     0     0     0     2   1.560
       237.083902      216.911684      390.492557     1     0     0     0     3   1.560
       191.805088      390.632735      114.927829     1     0     0     0     2   1.560
       405.912290      338.444937      177.183241     1     0     0     0     4   1.560
       201.211376      313.597673      214.853289     1     0     0     0     7   1.560
       380.653382       40.725576      438.952275     1     0     0     0     3   1.560
       124.834742      414.824973      328.516268     1     0     0     0     8   1.560
       401.675921      134.299164      258.636922     1     0     0     0     1   1.560
       385.325506      250.705522      117.886305     1     0     0     0     2   1.560
       387.068384      110.184033      250.836647     1     0     0     0     7   1.560
       118.373898      211.453023       73.362203     1     0     0     0     2   1.560
       461.310062      272.583844      421.647004     1     0     0     0     8   1.560
       214.412541      411.626955      308.001757     1     0     0     0     7   1.560
       219.767823      299.311685      344.647293     1     0     0     0     2   1.560
       112.463679       14.281471      118.757140     1     0     0     0     8   1.560
       393.725805      242.945019      473.535766     1     0     0     0     7   1.560
       129.611127      123.567203      465.830698     1     0     0     0     8   1.560
        36.459749       75.762012       38.770177     1     0     0     0     6   1.560
       253.419344      142.784278       49.908839     1     0     0     0     2   1.560
       475.491928      208.057021       18.461345     1     0     0     0     2   1.560
        10.528945      397.023529      265.479713     1     0     0     0     8   1.560
       282.585255      195.107476      369.956946     1     0     0     0     8   1.560
        28.855012      223.995914      393.177590     1     0     0     0     2   1.560
        65.061081       32.856763      407.969567     1     0     0     0     2   1.560
       489.628894      102.681895      467.619690     1     0     0     0     8   1.560
        84.285616      234.333250      463.946012     1     0     0     0     3   1.560
       460.942078      226.968042      369.288860     1     0     0     0     4   1.560
       314.342776      434.481549      309.987105     1     0     0     0     7   1.560
       413.223642      165.686960      418.437999     1     0     0     0     8   1.560
       393.088452      292.824368      132.880327     1     0     0     0     5   1.560
       116.483496      399.053026      301.711320     1     0     0     0     3   1.560
        71.829524      205.336895       87.954727     1     0     0     0     3   1.560
       377.042780      401.649461      493.593079     1     0     0     0     3   1.560
        78.924313      486.311749      362.293208     1     0     0     0     3   1.560
       174.344185      489.456296      139.457225     1     0     0     0     8   1.560
        15.153826      169.735304      395.023973     1     0     0     0     2   1.560
       427.290849       84.905812      237.644081     1     0     0     0     3   1.560
       266.552561      168.773772      457.215287     1     0     0     0     4   1.560
       456.709497      474.640609      205.448548     1     0     0     0     1   1.560
       459.326411      374.397220       61.149430     1     0     0     0     1   1.560
       264.609645      483.087250      436.974427     1     0     0     0     8   1.560
       456.214292      329.982638      461.679580     1     0     0     0     4   1.560
       106.498846      215.286575      118.715545     1     0     0     0     6   1.560
       336.932911      416.294527      495.579853     1     0     0     0     1   1.560
       375.252029      187.755670      414.433072     1     0     0     0     4   1.560
       345.747456      465.770100       11.587651     1     0     0     0     5   1.560
        52.978482      499.933026      426.102484     1     0     0     0     1   1.560
       371.970265      434.997059      132.758205     1     0     0     0     1   1.560
       396.076706      182.009299      285.772417     1     0     0     0     7   1.560
       260.046833      101.796322      468.097837     1     0     0     0     2   1.560
       174.349551      287.798722      196.173093     1     0     0     0     3   1.560
        32.294821      375.091291       27.398537     1     0     0     0     6   1.560
       146.224589      418.361746       55.887270     1     0     0     0     7   1.560
       437.114492      419.611012      289.947604     1     0     0     0     2   1.560
       183.496849        2.870427       32.664188     1     0     0     0     5   1.560
       157.886309      464.686673      367.778642     1     0     0     0     6   1.560
        70.376754      307.693981      382.150052     1     0     0     0     4   1.560
       176.340278      126.805383      441.955432     1     0     0     0     1   1.560
       280.646518      318.448949      183.856353     1     0     0     0     5   1.560
        37.885172       66.119101      444.442582     1     0     0     0     2   1.560
       487.439737      153.920037      122.350222     1     0     0     0     3   1.560
       224.770470      328.482263      221.890065     1     0     0     0     2   1.560
       224.121641      136.455289      157.699082     1     0     0     0     2   1.560
       143.150831      176.391503      148.008137     1     0     0     0     2   1.560
       453.454867      462.355498      469.360170     1     0     0     0     2   1.560
        24.735869      407.027018      410.079708     1     0     0     0     3   1.560
       130.867482      336.029786       97.282504     1     0     0     0     7   1.560
       447.458626      478.862663      307.462959     1     0     0     0     2   1.560
       313.641878      465.598066      179.862480     1     0     0     0     4   1.560
        89.552282      293.411270      233.195738     1     0     0     0     1   1.560
       131.722986       92.785314       83.847852     1     0     0     0     4   1.560
       263.950178      472.485996       23.353668     1     0     0     0     8   1.560
       291.300024      120.130104      328.626022     1     0     0     0     3   1.560
        43.910479      291.579048      163.691260     1     0     0     0     4   1.560
       106.830133      460.386275      452.730801     1     0     0     0     5   1.560
       428.565769       99.690098       34.318964     1     0     0     0     6   1.560
       123.337602      237.816182      207.081695     1     0     0     0     3   1.560
       388.264864       42.335978      117.342987     1     0     0     0     8   1.560
       258.246803       28.669691      454.225533     1     0     0     0     3   1.560
       126.433155      176.393397      314.486932     1     0     0     0     1   1.560
       304.693948      242.912062      497.328079     1     0     0     0     5   1.560
       283.427216      301.227039      206.746141     1     0     0     0     8   1.560
       261.697774       78.737892      461.925783     1     0     0     0     1   1.560
       216.383925      458.774333      403.385676     1     0     0     0     7   1.560
       303.745589      449.281606        0.569091     1     0     0     0     7   1.560
       456.582833       86.943979       60.581516     1     0     0     0     2   1.560
       104.115694      166.757482      339.012719     1     0     0     0     2   1.560
       427.489684       23.300673      195.095091     1     0     0     0     2   1.560
       197.168143      245.063557      372.771457     1     0     0     0     6   1.560
       182.857817      241.844226      215.823243     1     0     0     0     7   1.560
       365.273792      130.430683      264.231371     1     0     0     0     6   1.560
       359.319173       55.372363        1.757560     1     0     0     0     8   1.560
       257.492432      443.821588      120.920594     1     0     0     0     4   1.560
       487.257321      306.727971      297.333261     1     0     0     0     2   1.560
       458.322268      116.959106      277.545910     1     0     0     0     2   1.560
       374.215296      176.931129      438.848361     1     0     0     0     2   1.560
       264.259532      288.776168      495.290643     1     0     0     0     5   1.560
       124.428622      477.999256      359.286665     1     0     0     0     2   1.560
       166.503946      184.419375       33.136040     1     0     0     0     8   1.560
       276.812927      284.507194      313.889803     1     0     0     0     4   1.560
       273.475795       40.838287      286.523965     1     0     0     0     1   1.560
       254.543208       74.135269       30.501790     1     0     0     0     6   1.560
        76.786631      302.227544      211.435625     1     0     0     0     8   1.560
       223.839188      383.320085      429.395603     1     0     0     0     7   1.560
       262.142148      196.046435      143.733560     1     0     0     0     4   1.560
        29.523960      108.400047      432.997722     1     0     0     0     3   1.560
       342.211712      266.112195      393.196164     1     0     0     0     1   1.560
       383.685644       40.146452      226.096873     1     0     0     0     7   1.560
       395.275553      344.037936       44.384052     1     0     0     0     6   1.560
       150.827592      416.947642      314.343131     1     0     0     0     2   1.560
       242.069802      214.752302      362.311705     1     0     0     0     1   1.560
       198.521423      194.378090      309.452243     1     0     0     0     3   1.560
       113.723222      407.963729      247.473113     1     0     0     0     1   1.560
       211.226512      116.824804      101.625606     1     0     0     0     8   1.560
       488.978169      404.716594       31.176744     1     0     0     0     4   1.560
       346.624434       81.289179      237.180410     1     0     0     0     7   1.560
       316.485758      478.837027       71.659916     1     0     0     0     2   1.560
       462.583049      104.288163       27.902533     1     0     0     0     4   1.560
       433.671671      321.692326       63.914823     1     0     0     0     7   1.560
        79.230889      353.710695      297.433184     1     0     0     0     8   1.560
       246.370570      447.852485      210.480385     1     0     0     0     6   1.560
       283.377575      338.975497       37.737866     1     0     0     0     8   1.560
       248.371196      448.778538       69.014420     1     0     0     0     5   1.560
       279.988151      412.257234      362.132761     1     0     0     0     5   1.560
       427.063789      324.607271      381.550653     1     0     0     0     7   1.560
       192.914015       73.830732      110.784264     1     0     0     0     2   1.560
       328.389164      100.318406      148.700608     1     0     0     0     5   1.560
       339.184064      180.101125      388.034036     1     0     0     0     3   1.560
        58.919273      496.088142       56.325490     1     0     0     0     3   1.560
       369.030054      352.909859      126.050625     1     0     0     0     5   1.560
       480.774619      447.580081      431.378756     1     0     0     0     5   1.560
       364.328980      490.848498       13.797493     1     0     0     0     1   1.560
       405.819592      359.578223      390.615055     1     0     0     0     2   1.560
       219.270453      157.070634       31.880705     1     0     0     0     5   1.560
       229.487127      192.461969       54.161081     1     0     0     0     8   1.560
        60.301894      471.765435      480.835200     1     0     0     0     4   1.560
       142.383152      136.842493      361.519255     1     0     0     0     7   1.560
       420.437753      339.339289      356.005816     1     0     0     0     2   1.560
       208.239182      492.821812      353.014462     1     0     0     0     3   1.560
       183.311057      285.085646        1.645138     1     0     0     0     6   1.560
        98.472314      116.275380      257.069792     1     0     0     0     5   1.560
        52.501540      484.089525      216.610407     1     0     0     0     2   1.560
        44.450832      418.969868      179.776062     1     0     0     0     6   1.560
       252.228387      446.943458      176.026544     1     0     0     0     5   1.560
       235.672064       42.475207      195.875364     1     0     0     0     3   1.560
        82.400400      306.239926      300.598583     1     0     0     0     3   1.560
        75.917614      477.245531      154.594420     1     0     0     0     1   1.560
       121.206700      423.885810       49.849380     1     0     0     0     3   1.560
       233.460940      233.755178       89.374822     1     0     0     0     3   1.560
       214.760101       51.676449      431.895399     1     0     0     0     2   1.560
       217.742301      480.602581      238.037123     1     0     0     0     7   1.560
        73.296199      172.316829        1.298292     1     0     0     0     5   1.560
        93.313943      454.616912      238.888208     1     0     0     0     8   1.560
       379.911938      317.902599      342.365667     1     0     0     0     6   1.560
       494.677064      123.229784      481.059383     1     0     0     0     4   1.560
       140.241696       38.744464      366.063191     1     0     0     0     1   1.560
       149.851964      346.428103      124.327959     1     0     0     0     5   1.560
       319.295008      437.524359      343.363062     1     0     0     0     6   1.560
       301.870749      214.993378      234.761586     1     0     0     0     8   1.560
       119.547900       28.717126       27.074549     1     0     0     0     4   1.560
       210.099258      208.775817       18.422085     1     0     0     0     6   1.560
       158.720135      334.260854      166.243344     1     0     0     0     1   1.560
       180.434787       41.462935      301.095013     1     0     0     0     5   1.560
       218.697787      428.530447      192.285210     1     0     0     0     8   1.560
       491.707273      112.815114      298.390289     1     0     0     0     3   1.560
        31.000458      386.516842      423.025121     1     0     0     0     5   1.560
       457.989815      289.421886      379.646986     1     0     0     0     4   1.560
        64.504345      195.400086      301.637319     1     0     0     0     1   1.560
       353.686953      446.262146      478.726966     1     0     0     0     6   1.560
       443.523445      276.761709      259.845594     1     0     0     0     1   1.560
       353.077845       72.602940      483.560892     1     0     0     0     5   1.560
       386.046697      186.741674       25.148954     1     0     0     0     2   1.560
       133.564611      344.623596      206.728032     1     0     0     0     7   1.560
       309.934571      234.827366      497.458437     1     0     0     0     5   1.560
       412.499729      187.400018      429.492962     1     0     0     0     5   1.560
       388.721504      365.455364      492.771512     1     0     0     0     4   1.560
         2.739871       92.799328      438.027740     1     0     0     0     5   1.560
       481.747087      426.949770      239.198258     1     0     0     0     1   1.560
       109.749601       76.341458       78.084854     1     0     0     0     1   1.560
       174.634321       63.756670      182.141016     1     0     0     0     7   1.560
        71.740570      312.660463      377.621086     1     0     0     0     5   1.560
       282.901681      418.864306      177.659584     1     0     0     0     4   1.560
       246.189405      404.988604      290.891104     1     0     0     0     4   1.560
       340.133979      465.754313      232.452224     1     0     0     0     4   1.560
       436.305446      232.867514      141.888353     1     0     0     0     2   1.560
       112.405761      186.222822      132.471981     1     0     0     0     3   1.560
       318.828572       87.276457      409.708742     1     0     0     0     1   1.560
       326.090214      172.194366      395.688308     1     0     0     0     3   1.560
         5.484298       24.156525       25.353265     1     0     0     0     1   1.560
        90.090361       29.150423      190.308278     1     0     0     0     3   1.560
       450.650708      182.519484      140.077357     1     0     0     0     7   1.560
       125.952470      148.804702      497.957899     1     0     0     0     7   1.560
       163.414889      435.952135      144.504341     1     0     0     0     1   1.560
       486.516280      282.212892      226.317653     1     0     0     0     8   1.560
       374.086060      126.754605      232.168589     1     0     0     0     7   1.560
       313.224929      237.664233      275.360345     1     0     0     0     8   1.560
       106.786844      398.419403      249.632469     1     0     0     0     4   1.560
        95.507997      332.185143      149.865078     1     0     0     0     5   1.560
       335.179728      113.919474      343.339399     1     0     0     0     3   1.560
        36.484764      119.704441      279.741182     1     0     0     0     1   1.560
        65.465469      349.866258      265.550271     1     0     0     0     5   1.560
       342.469043      151.820298      252.552282     1     0     0     0     2   1.560
       344.867183      185.939601      390.391046     1     0     0     0     6   1.560
       115.806421      383.622950      392.184246     1     0     0     0     5   1.560