ITEM: TIMESTEP
0
ITEM: NUMBER OF ATOMS
        7880
ITEM: BOX BOUNDS pp pp pp
  0.0000000E+00   500.000000000000     
  0.0000000E+00   500.000000000000     
  0.0000000E+00   500.000000000000     
ITEM: ATOMS x y z nV nH f3 f4 orient
       148.263956        3.621321      218.957219     1     0     0     0     2
       393.325526      276.868938      442.064088     1     0     0     0     1
       316.119773      176.269426      303.622761     1     0     0     0     8
       207.716797       24.569300      219.897127     1     0     0     0     5
        75.305779       99.823257      205.255472     1     0     0     0     8
       232.801808      400.938227      155.372746     1     0     0     0     1
       369.086501      299.734917      202.442300     1     0     0     0     3
       324.873251       51.377510      442.042006     1     0     0     0     4
       381.497321      117.337618       47.142252     1     0     0     0     7
       133.573363      121.811529      357.760525     1     0     0     0     7
       270.711283      151.432875      432.512518     1     0     0     0     2
        43.572782      387.735255      386.143911     1     0     0     0     7
       476.329336      321.757540       51.513929     1     0     0     0     7
       287.744638      436.009852      275.774100     1     0     0     0     1
       412.460424      239.348080      132.171744     1     0     0     0     5
       487.288614      431.049224      482.377618     1     0     0     0     4
       325.275107       34.200149      383.307257     1     0     0     0     3
       285.681542      313.437751      350.484146     1     0     0     0     5
       301.840137       81.384937      298.123720     1     0     0     0     7
        32.679905       90.238905      446.236775     1     0     0     0     6
       258.747887      395.381509       67.456719     1     0     0     0     1
       301.127626      286.999699       26.102245     1     0     0     0     3
       265.400077      294.608452      387.690603     1     0     0     0     2
       226.102266       20.145922        0.689990     1     0     0     0     4
       262.833447      307.861786      381.739739     1     0     0     0     2
       280.265269       16.247328      449.618008     1     0     0     0     7
       417.756339      286.121932      363.267339     1     0     0     0     7
       142.132496      408.725968      329.370033     1     0     0     0     2
       133.848051      198.328654      387.871096     1     0     0     0     7
       395.413016      490.955035      380.996501     1     0     0     0     3
       371.708438      325.626883      183.490569     1     0     0     0     2
        53.868900      447.271985      379.322409     1     0     0     0     4
       273.775770       84.250602       28.498937     1     0     0     0     8
       484.848474      295.556457      466.711121     1     0     0     0     2
       196.142426      426.643227       97.407111     1     0     0     0     6
       157.829398       11.775304       25.950124     1     0     0     0     6
       123.742852      403.642096       12.796010     1     0     0     0     1
        31.526083      222.504350      160.521659     1     0     0     0     7
       437.471308      173.729570      200.743071     1     0     0     0     4
       343.586795      380.185961      461.166440     1     0     0     0     6
        96.821393      190.192212       12.874858     1     0     0     0     2
       471.402141      257.496330      299.485846     1     0     0     0     3
       110.946240      496.901121       52.627562     1     0     0     0     3
       238.295106       59.478756      206.993845     1     0     0     0     8
       319.001526      331.056486      218.923707     1     0     0     0     7
       316.683091      246.592977      263.594699     1     0     0     0     4
        74.901016      282.644632      440.557911     1     0     0     0     2
       113.005559       95.789161      435.408007     1     0     0     0     7
       449.028743       32.830939      231.268685     1     0     0     0     6
        90.483355       94.616333       82.465796     1     0     0     0     1
       456.503386      159.273608      362.449946     1     0     0     0     7
       318.576917      436.727511       60.121594     1     0     0     0     6
       111.508434      197.130509      101.272474     1     0     0     0     5
       370.347623      189.100785      471.254349     1     0     0     0     8
       318.553161      316.993576       97.750489     1     0     0     0     6
       232.832710      136.562967      354.707970     1     0     0     0     8
        48.478253      159.539070      462.217270     1     0     0     0     1
       103.827444       52.267950      494.154898     1     0     0     0     8
       473.704295      209.366179      325.848024     1     0     0     0     3
       487.922180      358.535650       18.394835     1     0     0     0     7
       343.288145       74.881707       94.692260     1     0     0     0     8
       489.662092      219.428089      260.416723     1     0     0     0     3
       315.393221      153.252763      117.041129     1     0     0     0     8
       445.903110      425.365378       52.077954     1     0     0     0     8
       317.570196      129.021816      423.154012     1     0     0     0     5
        67.482496      236.127204      164.786294     1     0     0     0     5
       285.078884        2.133366       80.707505     1     0     0     0     5
       403.481557      400.546692      467.350979     1     0     0     0     5
       330.605902       36.113788      263.846920     1     0     0     0     3
       281.198398      266.097687      335.834567     1     0     0     0     4
       362.274420      184.054989      435.049278     1     0     0     0     3
       366.604799      158.216204      421.458844     1     0     0     0     8
       255.498777      359.832230      318.857314     1     0     0     0     1
       373.575077      336.206369      282.044196     1     0     0     0     2
       415.956692      409.146409        9.477851     1     0     0     0     4
       273.640007      485.976510      419.392353     1     0     0     0     6
       430.737477      317.627136       32.185423     1     0     0     0     2
       362.954287      462.343524      255.876516     1     0     0     0     7
       414.731366      470.932937      335.294399     1     0     0     0     3
       260.263288        0.240879      355.810582     1     0     0     0     7
       193.171098      212.625910       87.275948     1     0     0     0     1
       314.651868      176.516357      247.365987     1     0     0     0     5
         3.466085      204.765393      428.845124     1     0     0     0     5
       202.374580      240.759486      399.888783     1     0     0     0     5
       494.500517      400.112891       78.138455     1     0     0     0     7
       273.701122      420.166139      434.993196     1     0     0     0     6
        92.941862      296.062193      422.653418     1     0     0     0     6
       118.351513      271.494156      369.736709     1     0     0     0     8
       456.038183      145.754598      206.142917     1     0     0     0     2
       450.943708      472.373902       66.452721     1     0     0     0     2
       170.263991      347.942791      391.115402     1     0     0     0     6
       371.813067      290.094606      385.626882     1     0     0     0     4
        28.577483      103.584256        3.693044     1     0     0     0     6
       384.369124      308.771427        0.348234     1     0     0     0     8
       262.378319      356.007149       43.445992     1     0     0     0     3
       453.044024       68.444473      321.026341     1     0     0     0     1
       337.454213      281.565767      357.463072     1     0     0     0     2
       429.072460      472.343945      423.618578     1     0     0     0     8
       440.756272      104.681510       42.803347     1     0     0     0     5
       434.605917      484.890536      240.709861     1     0     0     0     3
       142.782710      355.251115       22.495052     1     0     0     0     5
         8.028121      134.085985      194.580909     1     0     0     0     2
       470.825049      262.419175      331.772407     1     0     0     0     1
        51.640672      221.809364      325.769499     1     0     0     0     5
         8.559858      317.804815       90.774098     1     0     0     0     6
       468.640201      142.592829       76.391851     1     0     0     0     4
       380.273975      488.360327      290.543498     1     0     0     0     4
        16.484244      157.772330       19.061134     1     0     0     0     7
        18.871831      330.302284       49.713774     1     0     0     0     7
       448.027369       33.916366      206.293460     1     0     0     0     2
       224.824424      185.954304      143.644503     1     0     0     0     8
       215.936478      494.614594      102.945610     1     0     0     0     3
       116.267489      450.162678      371.065090     1     0     0     0     4
       102.938133       97.348103      424.962393     1     0     0     0     7
       447.828375      153.254997      125.562821     1     0     0     0     7
       101.441956      133.294088      262.372795     1     0     0     0     7
       426.575161      119.251758      318.674941     1     0     0     0     3
       439.395856        3.156541      395.451440     1     0     0     0     3
        63.306555      461.682860      155.351374     1     0     0     0     7
       216.371157      484.985475       83.268348     1     0     0     0     8
       453.671262      397.816130      272.441581     1     0     0     0     5
       269.739786      299.110171      471.369022     1     0     0     0     1
       246.276278      216.943678      440.103030     1     0     0     0     2
       406.102715      183.810106       85.498315     1     0     0     0     2
       287.907918      154.416377       84.708323     1     0     0     0     3
       317.930134      484.699038      453.553937     1     0     0     0     5
       122.132075       51.112925      429.715226     1     0     0     0     3
        51.955967      267.437809      483.849910     1     0     0     0     8
       164.121319      421.948422      367.277659     1     0     0     0     3
        51.852214      102.660287      170.374949     1     0     0     0     5
       291.229066       59.014773      265.218618     1     0     0     0     4
       119.599509        1.726533      417.214836     1     0     0     0     6
        15.998573      235.956919       94.669627     1     0     0     0     3
         4.007663      468.102629      489.021111     1     0     0     0     1
        56.819179      278.335636      397.295914     1     0     0     0     1
       303.598057      353.776267      409.486167     1     0     0     0     1
       241.779074      319.586982      394.089818     1     0     0     0     1
       450.756322       70.003948       96.740696     1     0     0     0     8
       134.137102      315.986869       73.647328     1     0     0     0     2
       292.655249      355.307256      457.832413     1     0     0     0     7
       452.868202      163.216950      444.818921     1     0     0     0     4
       331.330974      346.102588      153.382284     1     0     0     0     3
       149.313736       80.934880      321.218239     1     0     0     0     4
       136.954037      224.167342      444.721811     1     0     0     0     6
       307.009656       74.260488      124.980969     1     0     0     0     3
        62.491275       90.962141      113.394484     1     0     0     0     8
       117.149995       64.734567      376.962366     1     0     0     0     8
        28.397302      496.624778      455.464833     1     0     0     0     1
       350.709200      323.466617      316.210030     1     0     0     0     4
       419.457261      215.381823      136.150127     1     0     0     0     1
       262.212190      274.158121      139.466390     1     0     0     0     5
       273.056235       55.270985      424.332860     1     0     0     0     7
       455.735144      444.324358      175.825322     1     0     0     0     1
       166.155253       45.624694      297.572311     1     0     0     0     2
       180.175954       93.411032      427.224546     1     0     0     0     6
       300.278417      408.398365      461.562677     1     0     0     0     5
       267.966579      132.376582       11.952450     1     0     0     0     1
       279.682203      206.542472      249.564101     1     0     0     0     2
        71.190185      272.703488      203.850035     1     0     0     0     7
       490.581182      142.025480      357.059899     1     0     0     0     8
       331.517569      377.395144      158.044038     1     0     0     0     8
       256.796757      274.006945      323.074231     1     0     0     0     6
       233.045708      249.250067      169.680986     1     0     0     0     5
       121.125017      133.915529      264.984455     1     0     0     0     1
       277.156624      389.491614      462.621634     1     0     0     0     7
       241.967579      447.290213       11.796886     1     0     0     0     2
        77.163218      198.477425       90.873586     1     0     0     0     1
       316.265778      462.569253      293.707068     1     0     0     0     6
       336.636559       59.947692      253.885095     1     0     0     0     6
       146.870263       49.872828      290.761133     1     0     0     0     5
       303.772545       39.983794       99.206514     1     0     0     0     3
       480.576117       36.729562      356.951200     1     0     0     0     8
        96.169614      174.164526      483.803484     1     0     0     0     3
        19.419124      322.771298       98.905731     1     0     0     0     5
       157.110677      143.028561       77.803500     1     0     0     0     7
       117.918609      211.564222      342.477486     1     0     0     0     8
        49.696346       79.155483      298.869169     1     0     0     0     5
       492.259673        1.372955      352.227426     1     0     0     0     6
       409.701434      217.431294      356.462372     1     0     0     0     2
       150.085098      436.108375      228.387033     1     0     0     0     2
       347.558316      173.040568       31.728538     1     0     0     0     1
       437.899317      471.268605       80.942807     1     0     0     0     1
        83.924247      384.765132      178.498494     1     0     0     0     2
        40.973099      463.705869      184.591035     1     0     0     0     2
        60.659221      442.508935       26.114540     1     0     0     0     5
       402.454530      310.885623       13.010227     1     0     0     0     2
       210.990918       78.267654      388.284345     1     0     0     0     2
       113.131125      275.015487      239.212795     1     0     0     0     7
       211.975627      136.694866      472.330310     1     0     0     0     3
       193.940216       11.104400      188.935440     1     0     0     0     5
       495.864278      406.702816       84.552302     1     0     0     0     4
       287.198010       93.237998      223.015113     1     0     0     0     7
       466.964856      290.430952      288.074826     1     0     0     0     5
        38.981308      479.610545      280.298753     1     0     0     0     4
        80.609835      351.820490      423.642930     1     0     0     0     3
       298.303818      218.228963      210.503080     1     0     0     0     8
       434.919175       53.808192      147.791717     1     0     0     0     7
       103.452823      126.684704      261.359368     1     0     0     0     4
       156.800651      308.903844      272.205164     1     0     0     0     6
       170.471619       22.307453      223.026222     1     0     0     0     2
       170.793291      232.464024       82.145653     1     0     0     0     5
       337.851686       44.207156      467.719200     1     0     0     0     5
        85.059410       80.785578       99.323565     1     0     0     0     3
        66.463298      274.076244      149.858748     1     0     0     0     4
       406.366141      244.307381      351.633185     1     0     0     0     7
        77.176680      373.665093      471.015125     1     0     0     0     2
       465.811702       45.471767      257.412845     1     0     0     0     5
       300.799010      141.366270      353.443787     1     0     0     0     6
       483.680926      339.968901      452.148911     1     0     0     0     4
        39.752721      196.767600       43.731458     1     0     0     0     4
       412.918942      460.489513       55.623577     1     0     0     0     1
       208.352207      406.186053      438.969928     1     0     0     0     8
       121.374101      301.207771      312.721668     1     0     0     0     8
       188.942183       60.809806      201.573862     1     0     0     0     7
       486.091564      433.594129      476.192287     1     0     0     0     3
       475.841869      339.599933      244.460938     1     0     0     0     1
         8.846332      147.580870      140.242351     1     0     0     0     8
        62.366314      231.127443      174.757317     1     0     0     0     6
       168.992433       18.121606      360.655267     1     0     0     0     3
       369.845203       24.217620      139.157082     1     0     0     0     2
       218.259608      354.500176      430.450510     1     0     0     0     7
       413.050246      225.697033      352.802023     1     0     0     0     5
       270.202378      416.455546      363.595271     1     0     0     0     6
        18.179425      261.134393      227.918879     1     0     0     0     6
       225.665669      449.261069      222.533881     1     0     0     0     5
       215.555872      364.891641      348.649631     1     0     0     0     8
         0.599108      113.962078       33.110280     1     0     0     0     4
       150.183166      343.283098      172.916591     1     0     0     0     7
       434.141549      293.660556      250.423494     1     0     0     0     6
        59.180797      115.610672      386.518380     1     0     0     0     8
        98.865978      232.321240        4.205442     1     0     0     0     3
       448.231858        9.943489      255.374556     1     0     0     0     4
       463.127207        2.253376      422.773820     1     0     0     0     2
       470.781239      103.767788      387.678194     1     0     0     0     2
       413.130500      311.492791      375.314041     1     0     0     0     3
        18.457853      169.651516      202.398391     1     0     0     0     8
       133.974139      333.473853      460.911598     1     0     0     0     6
       117.528856      131.088219      370.639882     1     0     0     0     6
       118.014037      388.135165      148.922694     1     0     0     0     4
       455.853827      192.455987      326.561047     1     0     0     0     5
        74.016109      168.501286      470.848672     1     0     0     0     1
        43.129748      231.743424      212.306831     1     0     0     0     7
       212.875514       58.597516      395.575246     1     0     0     0     7
       209.914574      224.569582      319.081007     1     0     0     0     7
        32.626101      243.783400      488.059499     1     0     0     0     3
       481.879721      389.496967      130.113062     1     0     0     0     7
       489.912108      498.650500      340.200956     1     0     0     0     6
       428.534893      255.043066       78.453483     1     0     0     0     1
       162.248682      468.414674       73.198595     1     0     0     0     8
       194.158892      480.247142      121.167961     1     0     0     0     8
       247.659149      495.227666      235.749852     1     0     0     0     5
       136.754882      238.181593      407.033138     1     0     0     0     2
       398.538112      185.678594      451.041478     1     0     0     0     8
       482.697461      474.394123      403.070403     1     0     0     0     1
       145.072714      249.305042      173.163072     1     0     0     0     2
       127.654188      180.600374       24.430489     1     0     0     0     3
        64.493587      439.692836        6.803364     1     0     0     0     6
       130.050260      382.611440      126.443930     1     0     0     0     6
        26.976139      188.276034      149.674136     1     0     0     0     2
        37.965907      446.836982      114.503487     1     0     0     0     3
        89.385211      414.263778      342.860778     1     0     0     0     5
        62.022511      471.614378      116.417694     1     0     0     0     2
        76.630671      324.320709      464.266727     1     0     0     0     6
       492.794010      183.466394      167.759814     1     0     0     0     3
       160.050150      163.346613      455.521678     1     0     0     0     3
       210.787283      275.879532       30.134953     1     0     0     0     2
       233.321149       61.579702        1.101617     1     0     0     0     4
       476.978462      307.162272        7.851887     1     0     0     0     4
       329.885882      231.004932      238.773617     1     0     0     0     8
       113.275645       91.503821      332.401056     1     0     0     0     2
       353.132018      387.920103       44.736629     1     0     0     0     8
       308.227402      106.031099      140.279149     1     0     0     0     6
       204.909940      384.745595      364.995361     1     0     0     0     3
       405.372516      349.398807      459.252634     1     0     0     0     6
       120.547926        3.260574      345.701773     1     0     0     0     2
       181.929670      154.221973      375.856498     1     0     0     0     2
       103.455384      301.530037      485.558409     1     0     0     0     8
       113.929723      144.677248      211.348552     1     0     0     0     7
        93.571327      107.442190      240.366780     1     0     0     0     3
       338.202429      135.745810      145.069522     1     0     0     0     1
       368.864048      179.260047      421.331804     1     0     0     0     1
       215.702613      125.288038      396.194559     1     0     0     0     4
       214.669531      444.711016      459.574815     1     0     0     0     5
       157.275481      229.353537      464.432015     1     0     0     0     2
       244.996993       64.719879      358.719658     1     0     0     0     4
       228.888062      187.901172      183.134323     1     0     0     0     4
       160.037160       45.505536       19.226655     1     0     0     0     8
       371.175267      280.022837      284.536574     1     0     0     0     2
       147.994313       42.293419      425.057036     1     0     0     0     3
       173.758015      256.659557      466.861910     1     0     0     0     2
       481.821144      193.668702      142.100621     1     0     0     0     1
       171.233365       80.752624      482.091163     1     0     0     0     6
        84.726238      462.428356      365.463740     1     0     0     0     5
        39.479967       82.057666      258.704834     1     0     0     0     8
       472.771049      295.364435      192.424312     1     0     0     0     2
       495.478770       22.522124      306.788381     1     0     0     0     1
       392.160863       22.965106      248.185395     1     0     0     0     4
       359.554308      148.953358      204.099575     1     0     0     0     5
       198.173397      491.493164      169.638447     1     0     0     0     7
       108.126769      413.562230      410.794529     1     0     0     0     3
       287.933376      250.104734       28.290453     1     0     0     0     2
       379.973153      139.267949      322.611685     1     0     0     0     1
        14.771805       26.098072      415.775438     1     0     0     0     6
       356.304143       21.451461      406.040717     1     0     0     0     4
         6.487103      118.962893      152.596589     1     0     0     0     8
        91.865289      347.730333      389.116914     1     0     0     0     4
       154.110519      220.750079      352.234935     1     0     0     0     4
        97.194091      130.892796      482.336139     1     0     0     0     8
       335.024340      152.462979      459.346231     1     0     0     0     4
       496.059553      454.553970      210.233334     1     0     0     0     1
       307.261612      230.134868      358.440873     1     0     0     0     4
       220.806509      477.762085       53.635528     1     0     0     0     4
        52.190449      457.185000       70.856967     1     0     0     0     5
       489.133490       54.528257       35.373567     1     0     0     0     1
       448.335685       32.490616      185.814871     1     0     0     0     3
       321.373068      165.987479      222.572828     1     0     0     0     5
       291.226006      255.356935      182.857824     1     0     0     0     6
       182.958977      294.660450      317.298253     1     0     0     0     2
        36.253484       37.007823       22.954511     1     0     0     0     8
       449.849943       84.073901      474.606197     1     0     0     0     6
        50.246036      193.562020      147.051636     1     0     0     0     2
        26.255144      426.911158      483.728805     1     0     0     0     1
        54.755111      216.756377        0.824363     1     0     0     0     1
        22.751094      278.766147      378.481310     1     0     0     0     1
       284.223003      453.758087      422.875429     1     0     0     0     5
       353.212621      172.844119      387.872482     1     0     0     0     1
       308.954029      362.639243      365.978027     1     0     0     0     1
       402.648780      475.480970      281.266807     1     0     0     0     8
       194.026913      296.081261      147.076879     1     0     0     0     5
       102.573860       10.117385        5.373185     1     0     0     0     8
       429.100961       98.494436      177.621746     1     0     0     0     7
        92.926787        0.079226       59.431391     1     0     0     0     3
       414.930178      258.022080       60.399036     1     0     0     0     5
       248.742404       86.749638      212.557254     1     0     0     0     7
        86.893626      119.722908      412.520553     1     0     0     0     4
       329.271792      297.996606      366.601701     1     0     0     0     2
        30.387754       49.124320       96.677890     1     0     0     0     4
       245.679340      457.248568      137.492734     1     0     0     0     1
       241.599259      244.692281      244.054092     1     0     0     0     8
       498.218408      411.057442      266.677358     1     0     0     0     2
       362.585469       19.784234       47.221190     1     0     0     0     1
        45.387021      413.549328      410.230686     1     0     0     0     7
       378.175682      175.997321       60.260585     1     0     0     0     7
       269.418358      294.763540      488.702054     1     0     0     0     2
       483.809707      461.332069      101.529625     1     0     0     0     1
       184.303779       58.800364      456.009074     1     0     0     0     7
       236.194658      290.152880      429.908856     1     0     0     0     3
       374.044731       11.133305      356.247889     1     0     0     0     3
       446.711164      341.224023      166.985758     1     0     0     0     3
       260.211942      445.756507      315.567890     1     0     0     0     1
       334.606375      199.932257      436.883197     1     0     0     0     8
        97.009941       91.479654      219.601268     1     0     0     0     6
       446.988402        7.060724      138.842997     1     0     0     0     4
       361.111358      431.879372      194.522571     1     0     0     0     2
       369.809300      337.518807      121.319042     1     0     0     0     6
       393.651638      308.018912      104.921182     1     0     0     0     2
       250.227236      136.728978       33.917573     1     0     0     0     6
        96.340734      132.967121      485.969762     1     0     0     0     2
       147.715932      379.755236      238.515052     1     0     0     0     8
       310.435222      212.464121      143.893947     1     0     0     0     5
       398.345934      162.676731       20.380481     1     0     0     0     5
       278.114174      260.284643      402.321618     1     0     0     0     7
       479.809763      252.754264      468.441049     1     0     0     0     4
       118.468804      119.056228      427.902578     1     0     0     0     3
       136.608113      326.314129      149.367283     1     0     0     0     6
       292.900042      131.107029      351.182713     1     0     0     0     2
       114.124290      172.853832       69.138821     1     0     0     0     1
       284.808935      376.610627      441.543303     1     0     0     0     1
       162.135608      238.883068      268.024199     1     0     0     0     8
       403.168203      125.407131      226.479085     1     0     0     0     3
       386.467334      247.602754       22.061292     1     0     0     0     4
       386.167836      425.377583      341.016832     1     0     0     0     8