ITEM: TIMESTEP
0
ITEM: NUMBER OF ATOMS
        7877
ITEM: BOX BOUNDS pp pp pp
  0.0000000E+00   500.000000000000     
  0.0000000E+00   500.000000000000     
  0.0000000E+00   500.000000000000     
ITEM: ATOMS x y z f1 f2 f3 f4 orient radius
        41.391173       37.720329      196.512188     1     0     0     0     2   1.560
       434.130124      395.284249      295.589741     1     0     0     0     1   1.560
       218.253512      298.470621      456.268895     1     0     0     0     1   1.560
       220.590142      155.916070      315.103437     1     0     0     0     1   1.560
       441.973968      192.442563      290.824750     1     0     0     0     7   1.560
        15.359223      232.759256      279.323534     1     0     0     0     1   1.560
       476.250368       22.447685      327.763226     1     0     0     0     5   1.560
       232.764099      317.398245      487.336200     1     0     0     0     3   1.560
       176.597372      138.355189      359.032639     1     0     0     0     3   1.560
       376.732136      284.692825      228.230199     1     0     0     0     5   1.560
       367.303610      418.998341      222.766977     1     0     0     0     2   1.560
       271.870178      140.886334      452.948167     1     0     0     0     7   1.560
       481.273451      466.608679      446.571875     1     0     0     0     1   1.560
       108.600747      189.200431       67.629921     1     0     0     0     5   1.560
         2.261620      300.146615       69.599176     1     0     0     0     6   1.560
       271.796640      329.492407       13.327742     1     0     0     0     4   1.560
       374.739051      421.945035      304.894402     1     0     0     0     5   1.560
        23.920652      463.702331      294.133106     1     0     0     0     7   1.560
       331.926021      409.916268      315.065220     1     0     0     0     7   1.560
       101.412213      118.228643       67.980145     1     0     0     0     6   1.560
       169.353497      150.424341       62.638505     1     0     0     0     6   1.560
       356.086854      350.496132      225.911349     1     0     0     0     8   1.560
        33.504089      480.064888      171.071981     1     0     0     0     4   1.560
       349.214096      198.274995      368.456370     1     0     0     0     8   1.560
       161.535645      172.817929      152.653231     1     0     0     0     2   1.560
        38.569991       64.785528       35.020416     1     0     0     0     2   1.560
       291.763269      259.179393      269.673257     1     0     0     0     2   1.560
       347.364848      408.401879      407.031099     1     0     0     0     8   1.560
       217.642029      305.162554      137.804556     1     0     0     0     4   1.560
       360.244096       55.836038      425.590691     1     0     0     0     6   1.560
       289.280820      367.396756      152.956634     1     0     0     0     3   1.560
       413.178837       60.093819      285.304340     1     0     0     0     5   1.560
       460.109401      128.504251      199.965163     1     0     0     0     6   1.560
       449.990236      471.769854      458.463077     1     0     0     0     3   1.560
       375.421015      346.370344      202.052600     1     0     0     0     1   1.560
       107.280973       29.924358       85.342561     1     0     0     0     5   1.560
       387.677671      328.342957      328.549907     1     0     0     0     7   1.560
       166.206421      300.182275      104.013594     1     0     0     0     4   1.560
       476.044248       39.749491      101.253432     1     0     0     0     6   1.560
       183.240117       92.616179      314.619987     1     0     0     0     5   1.560
       158.711632      403.972069       27.116814     1     0     0     0     1   1.560
       357.309023      179.828060      377.949205     1     0     0     0     5   1.560
       385.606426      136.355642      186.593379     1     0     0     0     6   1.560
       137.046937      408.499957       69.498162     1     0     0     0     2   1.560
       202.734496      446.545780      215.402513     1     0     0     0     5   1.560
       238.025719      432.825288       40.376184     1     0     0     0     8   1.560
       204.718813      221.522698      273.658789     1     0     0     0     4   1.560
       210.944250      133.996593      245.982377     1     0     0     0     6   1.560
       190.462558       91.426287      177.765186     1     0     0     0     3   1.560
       168.640623      204.778373        8.562167     1     0     0     0     2   1.560
       236.852097      246.379383       32.181660     1     0     0     0     3   1.560
        59.203772      315.983075      157.130357     1     0     0     0     3   1.560
       406.379868      274.723999      129.650529     1     0     0     0     3   1.560
       343.329712      118.483693      319.026489     1     0     0     0     2   1.560
       125.535751       22.841619      175.057678     1     0     0     0     2   1.560
       359.439402       59.269989      159.106463     1     0     0     0     3   1.560
       449.323172      483.138698      403.513791     1     0     0     0     4   1.560
       479.391621       21.306246      251.105012     1     0     0     0     2   1.560
       136.968583      185.555122       15.438374     1     0     0     0     5   1.560
       161.397912      434.688149      210.979033     1     0     0     0     2   1.560
       111.178506      475.398986      213.217797     1     0     0     0     5   1.560
       407.765249       99.130681      137.735529     1     0     0     0     1   1.560
       127.213011      417.260911      304.794019     1     0     0     0     7   1.560
       243.462242      407.983752       88.654591     1     0     0     0     5   1.560
       377.638371      340.531698      139.603100     1     0     0     0     6   1.560
       235.458866      292.469553      304.034638     1     0     0     0     7   1.560
       201.570806      328.751536      223.336170     1     0     0     0     1   1.560
       117.133709       96.219532        0.683576     1     0     0     0     8   1.560
       463.414641      298.704760       61.030631     1     0     0     0     6   1.560
        49.684612       26.183090      333.765668     1     0     0     0     4   1.560
        77.182954      311.548581      213.671410     1     0     0     0     6   1.560
       388.236735      127.884393      213.961180     1     0     0     0     3   1.560
       283.689804       36.802529       21.152333     1     0     0     0     1   1.560
       343.264515      472.393380      198.081186     1     0     0     0     6   1.560
       415.493218      168.390658       79.744430     1     0     0     0     3   1.560
       396.406442      426.962495      279.615865     1     0     0     0     6   1.560
       460.765305      483.431102      314.750725     1     0     0     0     2   1.560
       228.582560      176.553807      315.526133     1     0     0     0     7   1.560
       159.605168       34.657043      495.363384     1     0     0     0     6   1.560
       233.321274      445.511019      222.958767     1     0     0     0     4   1.560
       304.243574      205.928563      224.134700     1     0     0     0     4   1.560
       268.553920      396.765308      153.004326     1     0     0     0     3   1.560
       287.823072      215.640845       98.473019     1     0     0     0     1   1.560
        78.230153      203.285825      134.751709     1     0     0     0     1   1.560
       334.648255      391.040927      497.299658     1     0     0     0     6   1.560
       126.445611      401.758076      255.180873     1     0     0     0     4   1.560
        59.119979      490.873166      417.353048     1     0     0     0     6   1.560
       112.327166      292.235043      386.152757     1     0     0     0     5   1.560
       155.314769      210.971081      302.283120     1     0     0     0     1   1.560
       334.173555      409.825468      494.717877     1     0     0     0     6   1.560
       197.194876       90.519583      451.821861     1     0     0     0     8   1.560
       450.145853      269.271529       65.089374     1     0     0     0     2   1.560
         2.541120       96.228658      375.775717     1     0     0     0     7   1.560
       448.646397      161.476988      264.266416     1     0     0     0     5   1.560
       295.292194        4.627604      455.209581     1     0     0     0     6   1.560
       292.090131      228.255345      353.577331     1     0     0     0     2   1.560
       429.668321      365.022522      266.759752     1     0     0     0     5   1.560
       480.487078      390.860678      112.004415     1     0     0     0     8   1.560
       400.439793      499.457814       63.741856     1     0     0     0     3   1.560
       361.232611      392.874766       17.178993     1     0     0     0     2   1.560
       363.475898      468.521479      480.009891     1     0     0     0     1   1.560
        70.973769      169.591667      220.150350     1     0     0     0     3   1.560
       115.814526      488.524766      347.596133     1     0     0     0     5   1.560
       422.676069      465.679233      115.538520     1     0     0     0     1   1.560
       478.668024      416.041822      387.926957     1     0     0     0     2   1.560
       390.580658       79.070449      299.502912     1     0     0     0     8   1.560
       254.728929      207.727138      448.832985     1     0     0     0     6   1.560
       130.598626       40.351172       69.855433     1     0     0     0     5   1.560
       102.850940      478.857472      453.610092     1     0     0     0     3   1.560
       385.741810      116.123854      152.881063     1     0     0     0     1   1.560
       231.846905       47.616047      157.229881     1     0     0     0     3   1.560
       142.803880      210.320674      260.758641     1     0     0     0     1   1.560
       279.475435       52.313491      492.889767     1     0     0     0     7   1.560
       491.319706      407.883608       57.970524     1     0     0     0     3   1.560
       183.242271      227.220106      284.268390     1     0     0     0     3   1.560
       160.448471       61.330443       31.692326     1     0     0     0     5   1.560
       187.119429      196.093006      275.381476     1     0     0     0     7   1.560
       134.876485       84.715531      223.064175     1     0     0     0     5   1.560
       331.268288      420.642099      460.452735     1     0     0     0     5   1.560
       319.000677       50.538346       91.201219     1     0     0     0     1   1.560
       138.270471      275.139957      369.114069     1     0     0     0     3   1.560
       346.541042      330.465585       24.161821     1     0     0     0     7   1.560
        82.253743      454.163938      429.967323     1     0     0     0     1   1.560
        56.389870       91.017173       99.251781     1     0     0     0     6   1.560
        26.291452      491.846493      265.553184     1     0     0     0     7   1.560
       269.939795      165.597125      434.805228     1     0     0     0     4   1.560
       103.696752      349.455231      144.754511     1     0     0     0     6   1.560
       310.092320       17.941677      211.172417     1     0     0     0     6   1.560
       440.897765      422.795020      319.120271     1     0     0     0     1   1.560
        74.685639      465.756290      199.228771     1     0     0     0     4   1.560
       257.127157       28.271715      389.102950     1     0     0     0     7   1.560
       205.709079      499.441235       71.056551     1     0     0     0     6   1.560
         3.955939      263.339567      186.898625     1     0     0     0     2   1.560
        48.584482       21.391559        2.970386     1     0     0     0     6   1.560
       453.232137      444.283163      390.581353     1     0     0     0     3   1.560
       252.909651      207.416235      374.666809     1     0     0     0     7   1.560
       213.961135      400.128184      108.597530     1     0     0     0     5   1.560
       386.921392      328.949488      183.513540     1     0     0     0     7   1.560
       110.229282      181.591802      176.984240     1     0     0     0     5   1.560
       393.313980       56.551324      454.778024     1     0     0     0     5   1.560
       146.990790      424.320422      334.846568     1     0     0     0     2   1.560
       423.831969      137.464313      252.306622     1     0     0     0     2   1.560
       427.633562       46.322898      184.411288     1     0     0     0     6   1.560
       421.885030      110.184033      219.185150     1     0     0     0     1   1.560
       135.782221      209.870449       65.449329     1     0     0     0     7   1.560
       433.664057      370.429311      169.336180     1     0     0     0     8   1.560
        24.657641      158.866623      452.895173     1     0     0     0     8   1.560
        28.725278      436.083839      153.252169     1     0     0     0     3   1.560
       107.715954       25.359495      114.009416     1     0     0     0     7   1.560
       403.221254      246.110168      464.040317     1     0     0     0     5   1.560
       129.611127      148.888400      450.004950     1     0     0     0     1   1.560
        44.372623       80.509736       40.352752     1     0     0     0     8   1.560
       253.419344      164.940325       49.908839     1     0     0     0     7   1.560
       472.326779      189.066123      493.140148     1     0     0     0     8   1.560
       478.877448      412.849277      265.479713     1     0     0     0     6   1.560
       304.741303      207.768074      382.617544     1     0     0     0     8   1.560
        13.775965      228.215566      393.963465     1     0     0     0     4   1.560
        36.574734       29.691613      388.978669     1     0     0     0     4   1.560
       478.550870       85.273572      497.688612     1     0     0     0     2   1.560
        87.450766      224.837801      435.459666     1     0     0     0     2   1.560
       454.611779      242.793790      369.288860     1     0     0     0     4   1.560
       327.003374      412.325502      303.656806     1     0     0     0     7   1.560
       481.027224       59.201577      447.723683     1     0     0     0     6   1.560
       405.749051      308.650116      139.210626     1     0     0     0     6   1.560
       460.701534      273.989678      105.583250     1     0     0     0     3   1.560
        76.455949      233.296946      434.810095     1     0     0     0     7   1.560
       405.529127      392.154012        6.253678     1     0     0     0     7   1.560
        63.098565      483.146599      333.806861     1     0     0     0     4   1.560
       196.500232      486.291147      139.457225     1     0     0     0     3   1.560
       488.250054      190.308776      383.945949     1     0     0     0     1   1.560
        12.393203      194.417905      348.079895     1     0     0     0     2   1.560
       264.969987      170.356347      465.128161     1     0     0     0     2   1.560
       466.204946      477.805759      214.943997     1     0     0     0     3   1.560
       340.815791      386.464589      410.415007     1     0     0     0     8   1.560
       264.609645      476.756950      443.304726     1     0     0     0     4   1.560
        52.848099      463.395431      410.068172     1     0     0     0     6   1.560
       386.571569      468.289635      295.621325     1     0     0     0     6   1.560
       237.564700      163.834391      102.972386     1     0     0     0     3   1.560
       368.921729      194.085970      414.433072     1     0     0     0     3   1.560
       348.912606      462.604950      492.596753     1     0     0     0     7   1.560
       139.322076       44.776242       47.709109     1     0     0     0     5   1.560
       368.805115      409.675862      120.097607     1     0     0     0     8   1.560
       389.746406      188.339598      276.276968     1     0     0     0     2   1.560
       271.124856      100.213747      444.359215     1     0     0     0     7   1.560
        15.489786      114.210991      340.401610     1     0     0     0     8   1.560
        51.285719      381.421590      495.747041     1     0     0     0     2   1.560
       146.224589      431.022344       43.226671     1     0     0     0     2   1.560
       430.784193      410.115564      312.103651     1     0     0     0     3   1.560
       257.297281      180.130254      238.232273     1     0     0     0     2   1.560
         7.606727      436.047889      169.255901     1     0     0     0     4   1.560
       448.086699      151.726803       28.457722     1     0     0     0     6   1.560
       139.040486      427.727715      408.017742     1     0     0     0     2   1.560
       279.063943      310.536074      198.099527     1     0     0     0     1   1.560
        28.389724       72.449401      444.442582     1     0     0     0     2   1.560
       470.031413      168.163211      123.932797     1     0     0     0     1   1.560
       226.353045      320.569388      207.646892     1     0     0     0     4   1.560
       217.791342      155.446187      160.864231     1     0     0     0     1   1.560
       125.742508      158.983180      121.104365     1     0     0     0     3   1.560
       291.987217       64.325488      481.343010     1     0     0     0     6   1.560
       169.665391      446.012509      151.660196     1     0     0     0     2   1.560
       126.119758      318.621463       64.048432     1     0     0     0     6   1.560
       464.866949      499.436136      299.550085     1     0     0     0     1   1.560
       312.059303      460.850342      171.949606     1     0     0     0     2   1.560
        89.552282      287.080970      245.856337     1     0     0     0     7   1.560
       102.335973      103.181429       65.538863     1     0     0     0     2   1.560
       486.985650       33.983814      433.550175     1     0     0     0     4   1.560
       294.465174      107.469506      334.956321     1     0     0     0     1   1.560
         5.928683      304.239646      179.517009     1     0     0     0     2   1.560
        87.839235      457.221125      449.565651     1     0     0     0     7   1.560
        25.081972      159.587738       68.988693     1     0     0     0     3   1.560
       398.180389      213.519929      259.916466     1     0     0     0     8   1.560
       380.351989       37.588253      118.925561     1     0     0     0     5   1.560
       328.310398      498.727693      284.593582     1     0     0     0     1   1.560
       143.841478      174.810823      284.418010     1     0     0     0     3   1.560
       255.758114       85.532156      230.891677     1     0     0     0     7   1.560
       159.017218      116.107361      185.890730     1     0     0     0     7   1.560
       256.950050       73.990168      469.838657     1     0     0     0     4   1.560
       177.295023      231.065451      188.815147     1     0     0     0     2   1.560
       303.745589      465.107354        0.569091     1     0     0     0     8   1.560
        98.894148      410.739416        5.614641     1     0     0     0     6   1.560
       115.193718      177.835506      353.255893     1     0     0     0     1   1.560
       425.907110       43.874145      177.686767     1     0     0     0     4   1.560
       175.012096      235.568108      379.101756     1     0     0     0     5   1.560
       157.536620      248.174525      212.658093     1     0     0     0     4   1.560
        93.959794      480.110948      497.002837     1     0     0     0     3   1.560
       351.406299       56.954937      493.844686     1     0     0     0     8   1.560
       251.162133      459.647336       89.269098     1     0     0     0     7   1.560
       249.334789        4.704774      117.713199     1     0     0     0     2   1.560
       332.956241      193.721521      462.155780     1     0     0     0     5   1.560
       276.804845      178.548345      159.773234     1     0     0     0     6   1.560
       292.745878      282.445869      482.630044     1     0     0     0     4   1.560
       132.341496      479.581831      373.529839     1     0     0     0     2   1.560
       397.897440      352.584501       46.353178     1     0     0     0     3   1.560
       297.386400      260.768571      337.628426     1     0     0     0     3   1.560
       260.815197       44.003437      296.019414     1     0     0     0     4   1.560
       439.267885      460.769795      354.780199     1     0     0     0     1   1.560
       378.887195      344.286169      373.126060     1     0     0     0     1   1.560
       245.995235      405.476133      423.065304     1     0     0     0     6   1.560
       281.133046      202.376735      165.889608     1     0     0     0     6   1.560
        46.932283      106.817472      425.084848     1     0     0     0     4   1.560
       331.133688      261.364471      369.457541     1     0     0     0     8   1.560
       485.182061      321.785842      471.866596     1     0     0     0     1   1.560
       385.780104      369.359133       38.053753     1     0     0     0     5   1.560
       144.497292      435.938540      317.508281     1     0     0     0     4   1.560
       246.817526      228.995476      367.059430     1     0     0     0     1   1.560
       299.651222      153.894580      137.889384     1     0     0     0     7   1.560
       486.706943      426.873622      419.409630     1     0     0     0     4   1.560
       460.948845      202.015396      300.751021     1     0     0     0     3   1.560
       487.395594      374.647672       26.429019     1     0     0     0     8   1.560
       335.546410      105.027802      251.423584     1     0     0     0     3   1.560
       310.155459      472.506727       87.485664     1     0     0     0     5   1.560
       475.243648      135.939660        5.746486     1     0     0     0     8   1.560
       432.089096      345.430949       52.836799     1     0     0     0     8   1.560
        68.152865      352.128120      299.015759     1     0     0     0     6   1.560
       230.544821      438.357036      213.645535     1     0     0     0     4   1.560
       278.629850      350.053521       42.485590     1     0     0     0     1   1.560
       287.935567      475.682310       45.275798     1     0     0     0     1   1.560
       330.630545      434.413281      324.150965     1     0     0     0     8   1.560
       439.724388      321.442121      381.550653     1     0     0     0     1   1.560
       219.817787       59.587559       99.706240     1     0     0     0     3   1.560
       451.690504      238.767314      207.497051     1     0     0     0     5   1.560
       353.427238      188.013999      386.451461     1     0     0     0     8   1.560
       306.617409      114.335779      313.265601     1     0     0     0     4   1.560
       380.108078      367.153033      133.963499     1     0     0     0     2   1.560
         1.348091      449.162656      429.796181     1     0     0     0     3   1.560
        79.281533      316.959266      188.499841     1     0     0     0     8   1.560
       412.149892      356.413073      400.110504     1     0     0     0     8   1.560
       300.544903       56.281877      427.918968     1     0     0     0     5   1.560
       187.096268      335.024664      413.368321     1     0     0     0     4   1.560
        50.806445      462.269986      477.670050     1     0     0     0     1   1.560
       107.719094      330.490430        9.737510     1     0     0     0     5   1.560
       414.107454      333.008990      346.510367     1     0     0     0     6   1.560
       203.491457      488.074088      370.422785     1     0     0     0     6   1.560
       189.641356      285.085646        4.810287     1     0     0     0     6   1.560
        90.559440      130.518553      274.478115     1     0     0     0     7   1.560
       466.427854      470.457713      324.539164     1     0     0     0     1   1.560
       380.678062      489.910738       23.801728     1     0     0     0     5   1.560
       236.402639      456.438907      176.026544     1     0     0     0     6   1.560
       230.924339       21.901734      184.797340     1     0     0     0     5   1.560
        82.400400      309.405076      303.763733     1     0     0     0     3   1.560
       109.151685      485.158405      156.176995     1     0     0     0     3   1.560
       124.371850      439.711558       72.005427     1     0     0     0     6   1.560
       252.451838      227.424879       86.209672     1     0     0     0     2   1.560
       216.342675       56.424174      436.643124     1     0     0     0     6   1.560
       203.220378      254.735840      152.163990     1     0     0     0     8   1.560
       108.112845      194.472876        4.463442     1     0     0     0     3   1.560
       397.829276      116.878858      463.157981     1     0     0     0     5   1.560
       357.755891      336.893497      329.705069     1     0     0     0     1   1.560
       104.852742      497.451093        1.600462     1     0     0     0     1   1.560
       165.562893       22.918716      359.732892     1     0     0     0     4   1.560
       202.154992      251.460881      367.491937     1     0     0     0     7   1.560
       303.469260      437.524359      343.363062     1     0     0     0     3   1.560
       133.032453      355.126112      342.671569     1     0     0     0     4   1.560
       119.547900       31.882276       49.230597     1     0     0     0     5   1.560
       192.690935      185.037194       23.169810     1     0     0     0     4   1.560
       131.816363      310.522232      145.669871     1     0     0     0     6   1.560
       456.360091      322.255968      362.645905     1     0     0     0     5   1.560
       196.541740      450.686495      233.432155     1     0     0     0     6   1.560
        20.193620      103.319665      301.555438     1     0     0     0     1   1.560
        40.495907      408.672890      410.364522     1     0     0     0     6   1.560
       438.998917      292.587036      366.986388     1     0     0     0     2   1.560
        62.921770      190.652362      293.724445     1     0     0     0     8   1.560
       251.796885      250.883533      497.831724     1     0     0     0     4   1.560
       416.547684      497.203591       83.077084     1     0     0     0     7   1.560
       346.747545       88.428688      486.726041     1     0     0     0     6   1.560
       134.648110       90.135856      166.555081     1     0     0     0     3   1.560
       116.367740      160.116335      218.708990     1     0     0     0     6   1.560
       310.775759      272.519858      448.445410     1     0     0     0     4   1.560
       182.692291      419.832764      432.200310     1     0     0     0     4   1.560
       150.566401      415.196725      376.304897     1     0     0     0     1   1.560
        34.391368       95.964478      428.532291     1     0     0     0     5   1.560
         3.903134      430.114919      248.693707     1     0     0     0     1   1.560
        90.758703       89.002056       74.919704     1     0     0     0     2   1.560
       171.469171       44.765772      185.306166     1     0     0     0     5   1.560
        63.038099      296.889271      451.186722     1     0     0     0     7   1.560
       309.805453      407.786282      179.242159     1     0     0     0     4   1.560
       372.988633      289.404839       49.098588     1     0     0     0     3   1.560
       466.564092      253.802560      134.560569     1     0     0     0     6   1.560
       417.314548      289.840207      151.383802     1     0     0     0     1   1.560
       126.648935      181.475097      102.403059     1     0     0     0     8   1.560
        40.014613       76.403148      463.554386     1     0     0     0     8   1.560
       202.930257      199.010655      214.237055     1     0     0     0     2   1.560
       387.245627       98.401227      150.048937     1     0     0     0     8   1.560
       100.943580       47.586862      210.186613     1     0     0     0     3   1.560
       458.563582      180.936910      122.669034     1     0     0     0     1   1.560
       122.787320      129.813804        1.123049     1     0     0     0     7   1.560
        20.434637      258.202904      327.081449     1     0     0     0     3   1.560
       494.429154      267.969719      231.065378     1     0     0     0     4   1.560
       333.174758       62.883965      481.166491     1     0     0     0     3   1.560
       329.050677      234.499083      256.369447     1     0     0     0     3   1.560
        64.309124      136.038949      402.775315     1     0     0     0     3   1.560
       116.081470      333.767718      148.282504     1     0     0     0     4   1.560
        29.038621      125.495381       54.583376     1     0     0     0     1   1.560
        41.232489      124.452166      278.158607     1     0     0     0     2   1.560
        56.257380      328.862431      144.251001     1     0     0     0     4   1.560
       485.327073       81.336274      328.447258     1     0     0     0     5   1.560
       471.858007      231.544972      157.895582     1     0     0     0     4   1.560
       136.379893      378.875226      396.931970     1     0     0     0     5   1.560