ITEM: TIMESTEP
0
ITEM: NUMBER OF ATOMS
        7877
ITEM: BOX BOUNDS pp pp pp
  0.0000000E+00   500.000000000000     
  0.0000000E+00   500.000000000000     
  0.0000000E+00   500.000000000000     
ITEM: ATOMS x y z nV nH f3 f4 orient
       409.675006      380.719592      104.041251     1     0     0     0     8
       409.151274      273.703788      461.054985     1     0     0     0     6
       319.284923      195.260324      303.622761     1     0     0     0     2
       209.299372       45.142773      230.975151     1     0     0     0     5
        89.548952       79.249784      222.663795     1     0     0     0     8
       228.054084      383.529904      141.129572     1     0     0     0     2
       152.227835      244.979087      192.437117     1     0     0     0     8
       313.795227       30.804037      453.120030     1     0     0     0     8
       367.605502       88.950341      437.612247     1     0     0     0     6
       135.155937      145.550151      356.177950     1     0     0     0     5
       289.702181      186.249521      442.007967     1     0     0     0     8
        48.320506      395.648129      394.056785     1     0     0     0     3
       106.963435      117.216244      326.053601     1     0     0     0     1
       289.327213      437.592427      267.861226     1     0     0     0     8
       431.451321      204.531434      132.171744     1     0     0     0     1
       493.912906      380.991151      315.055942     1     0     0     0     8
       315.779658       12.044102      383.307257     1     0     0     0     2
       301.507290      307.107452      363.144745     1     0     0     0     8
       287.387462      381.558033      393.376133     1     0     0     0     3
        32.679905       55.422259      465.227673     1     0     0     0     3
       241.339564      412.789832      100.690790     1     0     0     0     6
       116.177341      480.696442      497.358836     1     0     0     0     8
       276.478101      315.181924      363.951980     1     0     0     0     6
       243.510589       31.223946      470.621068     1     0     0     0     1
       435.080889      488.382529      125.455348     1     0     0     0     6
       258.109221      490.926131      471.774056     1     0     0     0     1
       182.830948      167.298947      335.790875     1     0     0     0     2
       108.194530      426.361613       17.286929     1     0     0     0     6
       138.595775      168.259732      405.279419     1     0     0     0     8
       348.854384      339.033124      464.811395     1     0     0     0     5
       351.134966      301.888260      169.247396     1     0     0     0     7
        58.616624      448.854560      387.235283     1     0     0     0     4
       424.824606      104.296310      372.265835     1     0     0     0     2
       103.406608       42.118326       75.601886     1     0     0     0     2
       185.021656      222.224126        1.974361     1     0     0     0     3
       127.662228       31.326404      217.066321     1     0     0     0     3
       440.673893      370.072022       14.572563     1     0     0     0     1
        33.108658      243.077822      171.599682     1     0     0     0     8
       171.829647       70.973693      141.219282     1     0     0     0     4
       345.169370      410.254883      484.905063     1     0     0     0     3
        87.325944      177.531613        3.379409     1     0     0     0     1
       118.897728      145.315346      239.118691     1     0     0     0     8
       118.859114      488.988247       54.210137     1     0     0     0     2
       258.868578       54.731031      221.237018     1     0     0     0     6
       331.662125      340.551935      222.088856     1     0     0     0     2
       337.256564      276.661899      262.012124     1     0     0     0     2
        54.327543      277.896908      394.663241     1     0     0     0     7
        98.762386       91.041437      430.660282     1     0     0     0     1
       236.217892      418.066076      494.130231     1     0     0     0     2
       103.143954       75.625435       95.126395     1     0     0     0     7
       335.861286      320.645805       55.511633     1     0     0     0     3
       326.489791      444.640385       64.869319     1     0     0     0     5
       136.829631      203.460809       88.611875     1     0     0     0     3
       383.008222      230.247730      442.768002     1     0     0     0     1
       216.473474      337.725515      103.468943     1     0     0     0     5
       240.745584      119.154643      365.785994     1     0     0     0     6
        54.808553      165.869369      471.712719     1     0     0     0     5
       106.992593       58.598250      481.494299     1     0     0     0     4
       294.416532      199.221993      109.160495     1     0     0     0     7
         6.913078      336.379603       27.890284     1     0     0     0     5
       346.453295       65.386258      104.187709     1     0     0     0     4
        27.643888      206.767490      231.930376     1     0     0     0     6
       346.045825      179.740994      313.275389     1     0     0     0     2
       449.068259      409.539630       58.408253     1     0     0     0     2
       301.744448      125.856666      394.667665     1     0     0     0     2
       267.954019        1.630545      354.220261     1     0     0     0     3
       316.730381        5.298516      112.359002     1     0     0     0     3
       405.064132      405.294417      465.768405     1     0     0     0     6
       332.188477       21.870614      249.603746     1     0     0     0     5
       276.450674      283.506010      362.738339     1     0     0     0     7
       354.361546      172.976965      427.136404     1     0     0     0     4
       387.178271      147.138180      410.380820     1     0     0     0     4
       451.351817       80.888901      170.465098     1     0     0     0     6
       227.296063      102.677461      394.486614     1     0     0     0     4
        86.281547       86.794994       84.695058     1     0     0     0     1
       265.727133      490.724234      446.296125     1     0     0     0     8
        39.972489      226.819288      364.870049     1     0     0     0     3
       295.835042      467.871496       44.235696     1     0     0     0     8
       413.148791      485.176110      359.033021     1     0     0     0     1
       246.020114      492.328005      335.237109     1     0     0     0     8
       129.337186      266.158944      191.300376     1     0     0     0     3
       320.982168      141.699711      244.200838     1     0     0     0     6
       180.639368       46.496869       95.525964     1     0     0     0     8
        98.715437      432.109487       68.786244     1     0     0     0     3
       497.665667      393.782591      106.624802     1     0     0     0     3
       261.040524      432.826737      441.323495     1     0     0     0     2
        80.281263      302.392492      416.323119     1     0     0     0     5
        43.063084      328.296663      441.277897     1     0     0     0     5
       215.069822      137.266205      178.835042     1     0     0     0     1
       457.274007      421.731508       47.461823     1     0     0     0     1
       181.342015      368.516264      392.697977     1     0     0     0     6
       382.891091      285.346881      380.879157     1     0     0     0     3
       485.847963       89.341083      492.615020     1     0     0     0     5
       378.038825      292.945679      487.687635     1     0     0     0     5
       311.736040      328.169993       90.623456     1     0     0     0     1
       131.954114      397.119309       33.309624     1     0     0     0     6
       329.541339      264.157444      374.871395     1     0     0     0     2
       438.567908      469.178796      429.948877     1     0     0     0     1
       443.921421      104.681510       45.968497     1     0     0     0     4
       458.344539        2.298859      242.292435     1     0     0     0     8
       157.025884      366.329138       36.738226     1     0     0     0     4
         3.280397      135.668559      202.493783     1     0     0     0     5
       337.270358      320.005192        0.331286     1     0     0     0     3
        57.970971      221.809364      309.943751     1     0     0     0     6
       363.639711      126.602744       42.028489     1     0     0     0     5
       217.731224      260.595108       26.199929     1     0     0     0     1
       381.856550      480.447452      292.126073     1     0     0     0     6
       494.914244      159.397717      193.300690     1     0     0     0     2
       496.715784      342.962882       52.878923     1     0     0     0     6
       444.862219       24.420917      218.954059     1     0     0     0     8
       201.788792      463.919968      115.078618     1     0     0     0     4
       236.509950        5.692618      110.858484     1     0     0     0     8
       260.997901      109.539387      312.286557     1     0     0     0     7
        85.529810       86.270079      388.563173     1     0     0     0     5
       447.828375      156.420147      138.223419     1     0     0     0     1
       277.464527      230.360779      413.975701     1     0     0     0     4
       436.070610      125.582057      306.014343     1     0     0     0     3
       227.613926        1.833603       16.638112     1     0     0     0     8
       100.631785      415.456225      379.194003     1     0     0     0     6
       217.953731      489.733200       65.860025     1     0     0     0     2
       460.001562      419.972178      291.432478     1     0     0     0     3
        49.030802       94.698523      261.623609     1     0     0     0     1
       217.789931      216.943678      452.763628     1     0     0     0     7
       423.511038      179.062381       77.585441     1     0     0     0     2
       261.186342      197.635143      176.737355     1     0     0     0     3
       310.017259      467.290715      448.806212     1     0     0     0     5
        85.944994      152.298780      290.463225     1     0     0     0     6
        55.121116      276.933258      499.675659     1     0     0     0     2
       160.777929      356.514063      252.115461     1     0     0     0     7
        74.008261       93.164838      176.705248     1     0     0     0     5
       293.709676       15.478071      104.949247     1     0     0     0     6
       292.683284      273.302848      405.452899     1     0     0     0     7
        31.824321      226.461470      113.660525     1     0     0     0     4
       499.259939      491.841252      493.768836     1     0     0     0     5
       152.242702      413.472058      175.057187     1     0     0     0     6
       281.442009      337.950519      393.660418     1     0     0     0     1
       268.682846      327.499856      386.176944     1     0     0     0     8
       436.513148       87.412271       95.158121     1     0     0     0     4
       177.108324      326.008568      375.706864     1     0     0     0     3
       311.646147      342.646657      470.493012     1     0     0     0     3
       473.441674      177.460123      436.906047     1     0     0     0     2
       321.835525      314.451092      131.226237     1     0     0     0     2
       157.226610       85.682605      325.965963     1     0     0     0     8
        41.691521      406.856799      396.241898     1     0     0     0     1
       419.011219      252.499312      106.616013     1     0     0     0     7
        48.248101       86.214416      146.628556     1     0     0     0     8
       123.480294       67.899717      361.136618     1     0     0     0     3
        41.057901      487.129329      477.620880     1     0     0     0     7
        77.037970      115.538423      370.846693     1     0     0     0     4
       433.700435      232.790146      178.879647     1     0     0     0     5
       241.638717      278.905846      128.388366     1     0     0     0     1
       269.432660      450.857334      256.994839     1     0     0     0     4
       473.143467      433.246334      164.747298     1     0     0     0     4
         1.096979      405.063410       92.358357     1     0     0     0     7
       202.332002       74.420134      417.729097     1     0     0     0     6
       288.182525       35.733450      304.676717     1     0     0     0     3
       263.218855      133.959156       23.030474     1     0     0     0     8
       274.934478      214.455346      232.155778     1     0     0     0     2
       378.637585      348.734103      141.355129     1     0     0     0     6
       261.195482      475.086077      423.985135     1     0     0     0     2
       289.269977      124.441105      168.339702     1     0     0     0     1
       252.049033      288.250118      302.500758     1     0     0     0     6
       209.307086      238.172043      171.263561     1     0     0     0     7
       106.881843      144.993553      269.732180     1     0     0     0     8
       267.661175      386.326465      468.951933     1     0     0     0     7
       272.036500      442.542488      497.553712     1     0     0     0     1
        53.424596      206.390299       79.795562     1     0     0     0     3
       319.430927      465.734403      290.541919     1     0     0     0     1
       331.888834       39.374219      261.797969     1     0     0     0     3
       151.617988       51.455403      282.848259     1     0     0     0     4
       316.433144       62.139842      115.032262     1     0     0     0     6
       411.777143      451.328488       57.778509     1     0     0     0     6
       417.208046        4.990981      263.120558     1     0     0     0     4
       461.847844      437.768237      110.422719     1     0     0     0     7
       348.314372        2.738486      223.174522     1     0     0     0     6
       110.421189      212.799655      100.483680     1     0     0     0     5
        49.696346       79.155483      298.869169     1     0     0     0     1
       470.103625      488.712357      361.722875     1     0     0     0     2
       395.458261      209.518420      351.714648     1     0     0     0     5
       134.259350      442.438674      215.726435     1     0     0     0     2
       364.966639      136.641347       23.815664     1     0     0     0     7
       447.803017      363.257003       90.597132     1     0     0     0     3
       112.410593      375.269683      194.324242     1     0     0     0     8
        47.303398      495.357365      200.416783     1     0     0     0     5
        34.801551      306.531881      135.785825     1     0     0     0     8
       460.794816      328.419544       17.332320     1     0     0     0     1
       231.564390      105.171426      374.041172     1     0     0     0     4
       113.131125      284.510935      255.038543     1     0     0     0     5
       216.723351      150.938039      483.408334     1     0     0     0     6
       173.366744        9.521825      184.187715     1     0     0     0     7
       497.446853      420.945990       89.300027     1     0     0     0     6
       193.610270        9.547473      222.424776     1     0     0     0     5
       439.865579      479.208871      200.251593     1     0     0     0     5
        51.641906      498.601443      254.977556     1     0     0     0     5
        79.027260      343.907616      412.564907     1     0     0     0     2
        99.955543      345.295246      105.813696     1     0     0     0     6
       404.850253       11.078672      162.034891     1     0     0     0     6
       117.695996      125.102130      243.951045     1     0     0     0     6
       164.713525      307.321269      264.292290     1     0     0     0     4
       485.470105      113.089261      312.302541     1     0     0     0     6
       164.462991      235.629174       78.980503     1     0     0     0     8
       298.287315       36.294282      469.301775     1     0     0     0     3
        88.224559       90.281027      121.479613     1     0     0     0     3
        22.680719      112.036988      299.016283     1     0     0     0     8
       255.537188      388.206917      289.224387     1     0     0     0     7
        67.681231      383.160542      458.354527     1     0     0     0     8
        43.396425      427.374889      135.072606     1     0     0     0     2
       404.867030       91.864909      151.606665     1     0     0     0     7
         2.671823      339.968901      483.800408     1     0     0     0     8
        42.917870      215.758497       40.566308     1     0     0     0     1
       409.753793      463.654662       61.953876     1     0     0     0     5
       351.069896      442.947688       83.069785     1     0     0     0     4
        96.052904      285.382023      312.721668     1     0     0     0     2
       157.161309      338.026865      311.771737     1     0     0     0     2
       482.926414      430.428979      485.687735     1     0     0     0     6
       496.415342      347.512808      255.538962     1     0     0     0     6
       491.438009      149.163445      135.494627     1     0     0     0     5
        44.957991      229.544868      176.339892     1     0     0     0     2
       180.070457       29.199630      349.577244     1     0     0     0     8
       388.836101      495.731273      126.496484     1     0     0     0     2
       438.621837      145.767745      160.414768     1     0     0     0     2
       422.545695      213.036434      359.132322     1     0     0     0     7
        65.279094      267.806928      174.227173     1     0     0     0     5
        15.014276      248.473795      240.579477     1     0     0     0     2
       216.170220      442.930769      216.203582     1     0     0     0     2
       196.564974      355.396192      364.475379     1     0     0     0     4
       489.521084      147.196150       34.692855     1     0     0     0     4
       151.765741      354.361122      171.334016     1     0     0     0     1
       400.153746      224.717418       80.463609     1     0     0     0     5
       432.266800      386.036400      420.848320     1     0     0     0     8
        97.283404      211.747767      496.292568     1     0     0     0     3
       465.640181        5.195765      247.461682     1     0     0     0     4
       243.781572      459.209493      457.655408     1     0     0     0     4
       467.616090      122.758686      394.008493     1     0     0     0     7
       432.121397      339.979138      362.653442     1     0     0     0     4
       440.545998      101.967737      201.059803     1     0     0     0     5
       151.382462      338.221577      449.833574     1     0     0     0     2
       112.781132      116.845046      375.387606     1     0     0     0     6
       334.314658       92.182112      461.991353     1     0     0     0     4
       460.601551      181.377963      331.308771     1     0     0     0     5
        59.772936      170.083861      485.091846     1     0     0     0     2
        51.042622      226.995700      226.550004     1     0     0     0     8
       495.206682      306.153029      438.661497     1     0     0     0     4
       179.845652      229.317306      342.819630     1     0     0     0     2
         5.594661      404.494850      435.711282     1     0     0     0     7
       121.409787      263.457355      107.575290     1     0     0     0     6
       173.484415      299.168063       89.907203     1     0     0     0     7
       431.700043      258.208216       78.453483     1     0     0     0     7
       162.248682      462.084375       54.207697     1     0     0     0     5
       297.199245      141.937018      278.184328     1     0     0     0     1
       238.163700      488.897367      238.915002     1     0     0     0     4
       200.518091      465.418418      131.207551     1     0     0     0     2
       426.377718      221.974219      122.549912     1     0     0     0     4
        17.819737      267.011941      468.815512     1     0     0     0     7
       149.820439      263.548216      193.736545     1     0     0     0     6
       239.433431        5.113751      288.271987     1     0     0     0     2
       371.950963      131.736766       71.880731     1     0     0     0     1
       312.520075      499.751214      197.439893     1     0     0     0     2
       207.588323      322.046678      433.833985     1     0     0     0     1
        30.053033      429.428659      116.086062     1     0     0     0     2
        92.550361      423.759227      346.025928     1     0     0     0     3
        50.944487      476.362102      108.504820     1     0     0     0     2
        52.892049      338.563882      453.188703     1     0     0     0     4
       353.605620      354.238736      439.187602     1     0     0     0     8
       167.533034      467.989615       92.229193     1     0     0     0     8
        48.523509      370.384628      243.704153     1     0     0     0     6
       493.452096       59.470986       86.264171     1     0     0     0     7
       254.894508       82.998137      393.512194     1     0     0     0     7
       284.194201       38.456778      445.182400     1     0     0     0     2
       414.574132      299.349846      355.529200     1     0     0     0     6
       346.801719      400.580701       41.571480     1     0     0     0     4
       300.314528      139.265171      129.201125     1     0     0     0     4
       212.822814      414.814516      357.082487     1     0     0     0     4
        90.256491      271.939758      354.712619     1     0     0     0     6
         4.163615       16.617604      420.441535     1     0     0     0     8
        86.806770        6.159400       84.691694     1     0     0     0     3
       401.943062      295.534848      148.995132     1     0     0     0     6
        93.356250      146.259823      174.949331     1     0     0     0     8
       252.555606      427.923026      363.133885     1     0     0     0     5
       369.853925      129.415511      148.234671     1     0     0     0     8
       365.698898      201.416094      421.331804     1     0     0     0     3
       218.867762      144.278936      402.524858     1     0     0     0     1
       229.109783      439.440495      464.695463     1     0     0     0     7
       198.768737       48.932958      264.635609     1     0     0     0     3
       252.909867       44.146406      350.806783     1     0     0     0     1
       220.975188      164.162550      181.551748     1     0     0     0     5
       414.598024      452.715738       44.247315     1     0     0     0     1
       372.757842      303.761459      289.284298     1     0     0     0     8
       222.348320      460.205111       56.583570     1     0     0     0     5
       167.427715      259.824707      432.045264     1     0     0     0     7
       469.160546      218.989899      119.944574     1     0     0     0     1
       185.476538       82.335199      480.508588     1     0     0     0     8
        95.804262      473.506380      370.211464     1     0     0     0     4
       185.083930       15.977896      217.226181     1     0     0     0     8
       454.400350      315.549826      255.828679     1     0     0     0     5
       112.420512       89.763565      228.035114     1     0     0     0     6
       370.004816       32.460555      260.845994     1     0     0     0     2
       356.389158      126.797311      197.769276     1     0     0     0     6
       193.425673       15.231787      142.734675     1     0     0     0     4
       144.525990      415.144804      415.542253     1     0     0     0     8
       111.956453      102.436496       72.626682     1     0     0     0     2
       129.640069      342.776000      403.622391     1     0     0     0     3
       457.890810       27.742296      272.430429     1     0     0     0     5
       340.478395       40.442359      399.710417     1     0     0     0     2
       484.331055       99.971995      162.092037     1     0     0     0     7
        96.613014      349.312908      406.525238     1     0     0     0     7
       155.693094      222.332654      375.973557     1     0     0     0     1
        82.950917       88.163276      477.588414     1     0     0     0     2
       350.850088      158.793278      411.868986     1     0     0     0     8
       119.379320      191.591232      470.905882     1     0     0     0     1
       334.400026      382.715164       22.216033     1     0     0     0     1
       249.292856      487.257534       34.644630     1     0     0     0     2
        49.025299      431.863803       51.866069     1     0     0     0     3
       495.463789       83.014604       44.869015     1     0     0     0     2
       101.457966       13.778799      135.582414     1     0     0     0     6
       337.198816      184.978377      235.233426     1     0     0     0     8
       295.973730      272.765258      178.110099     1     0     0     0     2
        62.143044        3.756695      331.600988     1     0     0     0     2
        18.845161       29.094949       27.702235     1     0     0     0     6
        83.213942      478.988821      480.542734     1     0     0     0     2
        34.206240      246.759524      308.600917     1     0     0     0     2
        37.333168      434.824033        1.137128     1     0     0     0     7
        56.337686      189.852605      489.746339     1     0     0     0     2
        22.751094      262.940399      359.490412     1     0     0     0     3
        33.945035      495.396173      451.312425     1     0     0     0     2
       354.795195      183.922143      398.950505     1     0     0     0     5
       310.536603      373.717267      370.725751     1     0     0     0     3
       165.245345      393.591347      337.870046     1     0     0     0     5
       220.930685      294.498686      145.494304     1     0     0     0     1
       437.205899      110.227957      150.012104     1     0     0     0     1
       429.100961      104.824735      155.465699     1     0     0     0     8
        45.449542        3.244376       56.266241     1     0     0     0     1
       414.930178      254.856930       41.408138     1     0     0     0     7
       243.994679       97.827661      191.983781     1     0     0     0     8
       360.972176       67.089893      471.615995     1     0     0     0     5
       330.854367      267.927685      355.523677     1     0     0     0     4
        20.892305       58.619769       80.852142     1     0     0     0     4
       245.679340      473.074316      115.336687     1     0     0     0     8
       235.268959      232.031682      240.888942     1     0     0     0     6
       476.062361      436.378639      254.016760     1     0     0     0     6
       365.750618       10.288785       31.395442     1     0     0     0     7
        29.561272      432.540225      391.239788     1     0     0     0     8
       376.593107      212.396542       74.503759     1     0     0     0     2
       288.409256      282.102941        7.692952     1     0     0     0     3
       374.252530      442.966062      214.748162     1     0     0     0     8
       220.488722       24.238438      439.701131     1     0     0     0     6
       233.029509      280.657432      414.083108     1     0     0     0     6
       362.966707      481.064384      335.674416     1     0     0     0     4
       448.293739      342.806598      159.072884     1     0     0     0     8
       276.037690      448.921657      306.072442     1     0     0     0     5
        91.602222      112.386566      219.980931     1     0     0     0     4
       130.244013       96.227379      227.514142     1     0     0     0     4
        86.215787      432.897710      166.990302     1     0     0     0     6
       370.606807      435.044522      194.522571     1     0     0     0     3
       173.074632      401.505499      310.140489     1     0     0     0     6
       107.694829       85.477270      417.934041     1     0     0     0     2
       259.722685      127.233529       33.917573     1     0     0     0     6
       105.836183      142.462570      498.630360     1     0     0     0     3
       123.977310      393.998409      252.758226     1     0     0     0     2
       345.251868      202.968672      137.563648     1     0     0     0     2
       390.433060      138.938109       18.797906     1     0     0     0     2
       179.410800       63.224431      392.384079     1     0     0     0     8
       492.470361      255.919413      481.101647     1     0     0     0     3
       110.555930      114.308503      423.154854     1     0     0     0     7
       119.199790      343.722452      135.124109     1     0     0     0     1
       297.647766      123.194155      352.765288     1     0     0     0     6
       131.532613      174.436407       58.060797     1     0     0     0     3
       283.226360      371.862902      462.116776     1     0     0     0     7
        83.419782       96.715032      356.718824     1     0     0     0     2
       139.003922      223.627050      116.953495     1     0     0     0     5
       405.458232      241.272455        3.070394     1     0     0     0     5
       368.759513      401.638961      352.094855     1     0     0     0     1