ITEM: TIMESTEP
0
ITEM: NUMBER OF ATOMS
        7874
ITEM: BOX BOUNDS pp pp pp
  0.0000000E+00   500.000000000000     
  0.0000000E+00   500.000000000000     
  0.0000000E+00   500.000000000000     
ITEM: ATOMS x y z f1 f2 f3 f4 orient radius
       106.140983       83.851850       20.534002     1     0     0     0     5   1.560
        68.551102       26.705140      369.005202     1     0     0     0     4   1.560
       210.340638      315.878944      457.851469     1     0     0     0     6   1.560
        58.833587      341.758848        2.077255     1     0     0     0     2   1.560
       415.070196      181.364540      301.902774     1     0     0     0     1   1.560
         9.028924      207.438058      244.506888     1     0     0     0     7   1.560
         3.618269      157.988821      308.924579     1     0     0     0     7   1.560
       412.859238      123.129359       47.015563     1     0     0     0     3   1.560
       170.267073      132.024889      336.876591     1     0     0     0     6   1.560
       389.237518      353.215151      380.787214     1     0     0     0     7   1.560
       243.593154        6.044104       15.876769     1     0     0     0     5   1.560
       290.861076      178.868129      449.783017     1     0     0     0     7   1.560
       316.155636      215.422992      440.951682     1     0     0     0     1   1.560
       116.513621      219.269353       50.221598     1     0     0     0     5   1.560
       470.610124      303.311765       69.599176     1     0     0     0     7   1.560
       414.183721       64.106852      313.999589     1     0     0     0     8   1.560
       381.069350      409.284437      298.564102     1     0     0     0     3   1.560
        28.668377      481.110654      273.559633     1     0     0     0     2   1.560
       307.291689      417.254168      450.536331     1     0     0     0     5   1.560
       185.780886      284.890115      308.289524     1     0     0     0     4   1.560
       114.744000      459.831133      233.369656     1     0     0     0     4   1.560
        83.163754      161.321400      460.702810     1     0     0     0     5   1.560
       455.300454      177.376108      301.651687     1     0     0     0     2   1.560
       365.039845      226.761342      365.291220     1     0     0     0     1   1.560
       163.118219      171.235354      128.914609     1     0     0     0     8   1.560
       482.105823      220.615701       75.258993     1     0     0     0     2   1.560
       328.162490      229.110471      252.264934     1     0     0     0     1   1.560
        67.420662      146.593091      167.475170     1     0     0     0     1   1.560
       190.738257      335.231475      126.726532     1     0     0     0     5   1.560
       342.835773       25.767117      408.182368     1     0     0     0     3   1.560
       328.845190      368.979330      141.878610     1     0     0     0     8   1.560
       403.683388       47.433221      266.313442     1     0     0     0     1   1.560
       466.439701      131.669401      180.974265     1     0     0     0     1   1.560
       445.242512      486.013028      428.394155     1     0     0     0     4   1.560
       399.159637      338.457470      216.295773     1     0     0     0     4   1.560
       134.184745       28.341784       96.420584     1     0     0     0     3   1.560
       397.173120      334.673257      331.715057     1     0     0     0     8   1.560
       223.946552        9.120792      322.457893     1     0     0     0     8   1.560
       370.706541      291.773467       92.699835     1     0     0     0     3   1.560
       175.327243       94.198754      316.202562     1     0     0     0     7   1.560
       163.459356      424.545542        3.378192     1     0     0     0     4   1.560
       362.056748      216.227281      341.549985     1     0     0     0     3   1.560
       385.606426      145.851091      192.923679     1     0     0     0     5   1.560
       108.560590      421.160556       12.525468     1     0     0     0     4   1.560
       171.082999      430.720032      212.237363     1     0     0     0     8   1.560
       245.938593      431.242713       45.123908     1     0     0     0     7   1.560
       113.304538      464.014672      132.876524     1     0     0     0     2   1.560
       396.621719      373.797872      422.405242     1     0     0     0     8   1.560
       141.402738       99.339161      160.356863     1     0     0     0     6   1.560
       302.057792      272.378119      333.424029     1     0     0     0     6   1.560
       241.599822      251.127108        8.443037     1     0     0     0     4   1.560
       281.798127      179.334573      268.683100     1     0     0     0     5   1.560
       354.072493       50.241361      333.293008     1     0     0     0     1   1.560
       370.233484      116.901118      368.086308     1     0     0     0     3   1.560
       420.465890      435.023228      111.922240     1     0     0     0     2   1.560
       383.178024       70.348013      160.689038     1     0     0     0     1   1.560
       196.055452      345.495048      346.125947     1     0     0     0     4   1.560
       386.002556      222.112120      299.159794     1     0     0     0     4   1.560
       155.959481      172.894523       34.429272     1     0     0     0     8   1.560
        61.233917      169.822128      152.051199     1     0     0     0     3   1.560
       320.601444      143.347610      365.586094     1     0     0     0     2   1.560
       418.843273       88.052657      136.152954     1     0     0     0     2   1.560
       385.186057      424.459619       77.891591     1     0     0     0     3   1.560
       301.982539      381.746281       15.728355     1     0     0     0     1   1.560
       357.064898      348.444572      128.525076     1     0     0     0     3   1.560
       119.579294       79.301041      492.485985     1     0     0     0     3   1.560
       194.840007      334.645956      259.688781     1     0     0     0     5   1.560
       102.890535       72.480910      499.101001     1     0     0     0     3   1.560
       485.570689      276.548712       70.526080     1     0     0     0     5   1.560
        38.606588        5.609618      316.357345     1     0     0     0     2   1.560
       111.999601      311.548581      223.166859     1     0     0     0     3   1.560
       386.654161      119.971519      221.874054     1     0     0     0     2   1.560
       496.859862      191.461704      461.548012     1     0     0     0     1   1.560
       117.010311       26.288178      458.163029     1     0     0     0     1   1.560
       334.969296      364.343342      234.756739     1     0     0     0     8   1.560
       364.754946      417.467046      244.799219     1     0     0     0     3   1.560
       324.286251      111.546397      228.518524     1     0     0     0     2   1.560
       261.816631      187.631831      336.099605     1     0     0     0     1   1.560
       179.301192       46.946209      128.836196     1     0     0     0     5   1.560
       156.299372       44.450150      202.551920     1     0     0     0     3   1.560
       488.186232      468.985682      377.441275     1     0     0     0     5   1.560
       288.726423      406.198676      151.737886     1     0     0     0     7   1.560
       369.102617      395.525395      107.252913     1     0     0     0     5   1.560
        84.560453      212.781274      128.421410     1     0     0     0     1   1.560
        82.928874       95.963266       32.170733     1     0     0     0     4   1.560
       299.536978      295.766093      170.480940     1     0     0     0     2   1.560
       377.128235      224.635528      207.833903     1     0     0     0     2   1.560
       310.392087      217.175681       99.260261     1     0     0     0     2   1.560
       103.592182       48.262749       33.914363     1     0     0     0     2   1.560
       444.595984       69.802098      242.094899     1     0     0     0     1   1.560
       250.170052      286.017327      164.101977     1     0     0     0     6   1.560
       458.058727      302.505600       79.332547     1     0     0     0     5   1.560
       160.544310      307.843210      272.523628     1     0     0     0     6   1.560
       469.219870      156.729264      259.518692     1     0     0     0     8   1.560
       201.637977      380.017217      499.480469     1     0     0     0     1   1.560
       282.594683      250.411393      366.237930     1     0     0     0     8   1.560
       333.743594      431.820695      267.355308     1     0     0     0     6   1.560
       456.748455      382.947804      129.412738     1     0     0     0     7   1.560
       259.950419       54.354378      150.876165     1     0     0     0     3   1.560
        19.363716       71.634994       42.609835     1     0     0     0     4   1.560
         6.111061        3.065504      345.405116     1     0     0     0     7   1.560
       304.328577      290.049407      144.113323     1     0     0     0     8   1.560
       112.649376      494.855066      338.100684     1     0     0     0     7   1.560
       329.136747      336.813102      327.416890     1     0     0     0     5   1.560
       462.842275      406.546374      387.926957     1     0     0     0     4   1.560
       422.788319       91.020851       78.029539     1     0     0     0     1   1.560
       272.137252      247.291508      431.424662     1     0     0     0     1   1.560
       119.520602       57.759495       52.447110     1     0     0     0     2   1.560
       433.611777      292.460459      145.366898     1     0     0     0     6   1.560
       302.425990      267.259305       22.889915     1     0     0     0     2   1.560
       261.570261      384.473284      339.964503     1     0     0     0     1   1.560
       141.221305      196.077501      252.845767     1     0     0     0     5   1.560
       421.561909      393.261906      250.331011     1     0     0     0     5   1.560
         5.562879      384.144986       43.727351     1     0     0     0     5   1.560
       124.602052       45.481646      436.826274     1     0     0     0     2   1.560
       177.856794       91.399365       33.274900     1     0     0     0     3   1.560
       301.374253      409.518954      495.362129     1     0     0     0     8   1.560
       278.856514      432.181115      369.320986     1     0     0     0     8   1.560
       340.763737      407.981500      492.104231     1     0     0     0     5   1.560
       421.217896      303.674750      485.567698     1     0     0     0     8   1.560
       106.618975      332.112651      350.123171     1     0     0     0     5   1.560
       343.375892      330.465585      495.675474     1     0     0     0     8   1.560
        68.010569      458.911662      422.054449     1     0     0     0     8   1.560
       433.396207      167.454233      376.314979     1     0     0     0     1   1.560
        13.630854       23.497989      278.213783     1     0     0     0     8   1.560
       260.444346      143.441077      415.814330     1     0     0     0     5   1.560
       249.211112       37.759669      218.010086     1     0     0     0     5   1.560
       407.459725      406.169170      472.492311     1     0     0     0     6   1.560
       445.645490      421.212445      295.381649     1     0     0     0     6   1.560
       202.255272        4.295486      473.592081     1     0     0     0     4   1.560
       241.301408       34.602014      370.112052     1     0     0     0     8   1.560
       202.543929      499.441235       29.909606     1     0     0     0     5   1.560
        15.033963      258.591842      204.306948     1     0     0     0     1   1.560
        47.001907       13.478685       23.543859     1     0     0     0     1   1.560
        15.193855      490.711167        4.331887     1     0     0     0     4   1.560
       324.002837       92.087848      105.931319     1     0     0     0     5   1.560
       210.795986      377.972137      137.083877     1     0     0     0     1   1.560
       394.834266      330.532063      181.930966     1     0     0     0     7   1.560
       135.240701       29.492429      210.234921     1     0     0     0     4   1.560
       407.557154       32.812702      440.534850     1     0     0     0     4   1.560
       339.103516      297.752571      300.384143     1     0     0     0     3   1.560
       406.423646      145.377188      244.393748     1     0     0     0     5   1.560
       405.477515       24.166850      197.071887     1     0     0     0     8   1.560
       402.896496      379.948728      463.801079     1     0     0     0     7   1.560
       139.712416      249.743135      360.724265     1     0     0     0     2   1.560
       402.012560      335.612665      166.171031     1     0     0     0     4   1.560
        45.231114      188.935545      463.973197     1     0     0     0     1   1.560
       319.231551      389.939624      415.206485     1     0     0     0     3   1.560
        80.812182        4.786022       96.601093     1     0     0     0     2   1.560
       422.212152      252.440468      429.223671     1     0     0     0     5   1.560
       139.106576      152.053549      456.335249     1     0     0     0     5   1.560
        42.790048       56.771114       26.109578     1     0     0     0     3   1.560
       258.167069      182.348648       57.821713     1     0     0     0     3   1.560
       454.918456      168.492650      459.906077     1     0     0     0     1   1.560
       464.634275      366.954607      254.401690     1     0     0     0     5   1.560
       340.985934      477.041303      175.571617     1     0     0     0     6   1.560
        26.436563      272.527661      368.642268     1     0     0     0     8   1.560
       364.718405       36.809831      276.113522     1     0     0     0     8   1.560
       465.890271       91.603871      478.697714     1     0     0     0     4   1.560
       136.510585      213.759777      449.702839     1     0     0     0     1   1.560
       457.776929      255.454389      366.123711     1     0     0     0     1   1.560
       448.686998       39.367552        7.772147     1     0     0     0     8   1.560
       417.790655       43.527893      321.217966     1     0     0     0     5   1.560
        60.685941      167.430232      100.442223     1     0     0     0     8   1.560
       484.440157      231.260158       75.514329     1     0     0     0     3   1.560
        30.614960      135.875235      161.589634     1     0     0     0     3   1.560
         2.243702      482.446317       31.389288     1     0     0     0     3   1.560
        52.020541      484.729174      335.389436     1     0     0     0     7   1.560
       444.262770      353.717498      473.475869     1     0     0     0     6   1.560
       483.502330      185.561052      382.363375     1     0     0     0     2   1.560
        18.723502      184.922456      341.749596     1     0     0     0     4   1.560
       392.667941      129.680710      413.903584     1     0     0     0     8   1.560
       300.341632      468.055801       49.202224     1     0     0     0     1   1.560
       315.974861       73.104316       84.150024     1     0     0     0     1   1.560
       460.907319       33.690524      224.290574     1     0     0     0     2   1.560
       195.950365      359.964704      205.886979     1     0     0     0     1   1.560
        13.263360      270.445232      425.916468     1     0     0     0     5   1.560
       166.107506      402.622683      345.923453     1     0     0     0     2   1.560
       394.242926      181.425371      433.423970     1     0     0     0     3   1.560
       337.834582      480.013273       10.005076     1     0     0     0     4   1.560
       216.258847      409.094922      495.503180     1     0     0     0     7   1.560
       343.483918      438.162209      126.427906     1     0     0     0     7   1.560
       386.581257      219.991095      323.754212     1     0     0     0     5   1.560
       253.716533       98.631172      455.437239     1     0     0     0     4   1.560
       494.916313      106.298117      348.314485     1     0     0     0     2   1.560
       159.554310       49.778466      409.039433     1     0     0     0     5   1.560
       150.972314      419.944320       73.295593     1     0     0     0     4   1.560
       306.758990      189.133259       82.088107     1     0     0     0     6   1.560
       387.336911      333.356676      445.162179     1     0     0     0     7   1.560
       223.307310       49.574112       61.795289     1     0     0     0     5   1.560
       338.004494       46.621761       30.620954     1     0     0     0     3   1.560
       161.196534      399.241369      395.357144     1     0     0     0     2   1.560
       267.985920      280.467153      202.847251     1     0     0     0     8   1.560
        42.632897       96.188023      471.346354     1     0     0     0     8   1.560
       300.372771      192.939639       98.265972     1     0     0     0     6   1.560
       254.839391      317.404239      220.307491     1     0     0     0     3   1.560
       189.304995      161.776487      129.212735     1     0     0     0     2   1.560
       154.228854      133.661983      133.764963     1     0     0     0     7   1.560
       388.315235      192.223233       73.127868     1     0     0     0     6   1.560
       164.917667      447.595084      124.756424     1     0     0     0     4   1.560
       303.618839      114.556721      385.855584     1     0     0     0     7   1.560
       466.449524      482.027813      310.628108     1     0     0     0     2   1.560
       100.396251      110.177319      354.153932     1     0     0     0     2   1.560
        75.309108      320.315041      222.117715     1     0     0     0     2   1.560
        54.535984      202.574171      258.101361     1     0     0     0     1   1.560
       479.072775       10.245191      400.316104     1     0     0     0     2   1.560
       310.454890      429.560822       59.787204     1     0     0     0     5   1.560
       499.598384      310.569946      192.177607     1     0     0     0     4   1.560
        97.334684      447.725677      481.217148     1     0     0     0     3   1.560
        18.751673      153.257439       68.988693     1     0     0     0     6   1.560
        27.059859      383.201704      216.211193     1     0     0     0     8   1.560
       388.264864       48.666277      111.012687     1     0     0     0     1   1.560
       197.831686      143.910539       71.597595     1     0     0     0     5   1.560
       157.099903      275.605588      248.972925     1     0     0     0     7   1.560
       244.680090       68.123832      197.657606     1     0     0     0     4   1.560
       151.104344      111.359636      177.977856     1     0     0     0     4   1.560
       286.750512      252.414279       85.837349     1     0     0     0     7   1.560
       477.806481      419.378721      323.488318     1     0     0     0     1   1.560
       123.159982      133.772295      218.029408     1     0     0     0     3   1.560
        76.738101      417.069715      483.458593     1     0     0     0     6   1.560
       269.656006      220.280741      172.286516     1     0     0     0     6   1.560
         3.117492      213.511173      271.498848     1     0     0     0     2   1.560
       498.690394      359.593463      423.282779     1     0     0     0     7   1.560
       146.458596      240.261651      239.561865     1     0     0     0     7   1.560
       178.382792      208.610420      255.302889     1     0     0     0     4   1.560
       343.493425       36.381465       36.574206     1     0     0     0     1   1.560
       240.084109      423.248116       75.025924     1     0     0     0     3   1.560
       228.761316      484.131301       81.313978     1     0     0     0     5   1.560
       332.956241      190.556371      443.164882     1     0     0     0     7   1.560
       275.222270      176.965770      132.869462     1     0     0     0     5   1.560
       297.493603      290.358743       12.698966     1     0     0     0     7   1.560
       282.771476      248.625169      121.863253     1     0     0     0     3   1.560
       385.236841      355.749650       59.013777     1     0     0     0     5   1.560
       283.143226      237.029949      355.036749     1     0     0     0     4   1.560
       341.307367      324.965265       97.030328     1     0     0     0     5   1.560
       477.249681      489.256141      323.128702     1     0     0     0     8   1.560
       188.933164      283.921835       58.708564     1     0     0     0     4   1.560
       222.256613      457.701102      437.308477     1     0     0     0     7   1.560
       249.249117      175.629251       49.404585     1     0     0     0     1   1.560
       366.917161      327.824581      403.709049     1     0     0     0     4   1.560
       467.717785      485.488849      413.093314     1     0     0     0     4   1.560
       261.674699      468.956897      165.859115     1     0     0     0     3   1.560
       398.440702      350.368235       53.879501     1     0     0     0     2   1.560
       122.341245      420.112792      336.499178     1     0     0     0     1   1.560
       235.739503      221.082602      381.302603     1     0     0     0     8   1.560
       321.659576      148.063628      269.629486     1     0     0     0     7   1.560
       343.143449      446.166697      100.070230     1     0     0     0     6   1.560
       183.814666      388.687581       18.200077     1     0     0     0     5   1.560
       495.308468      388.890846       24.846444     1     0     0     0     2   1.560
       352.954733       97.114928      262.501608     1     0     0     0     7   1.560
       318.068333      480.419602      108.059137     1     0     0     0     2   1.560
         0.564845      135.939660      483.590438     1     0     0     0     3   1.560
       479.566341      361.256697       46.506500     1     0     0     0     7   1.560
        74.483164      380.614467      330.667256     1     0     0     0     5   1.560
       195.685395      322.161794      294.089180     1     0     0     0     1   1.560
         8.055674       18.349227      464.677802     1     0     0     0     3   1.560
       351.878718      381.105077       71.144059     1     0     0     0     2   1.560
       327.465395      434.413281      349.472162     1     0     0     0     3   1.560
       414.403191      315.111822      422.697598     1     0     0     0     6   1.560
       202.409464       64.335283      107.619115     1     0     0     0     3   1.560
       163.593459      233.455057      257.412269     1     0     0     0     2   1.560
       249.156202      394.082589      453.520378     1     0     0     0     2   1.560
       216.821766      357.289195      213.740105     1     0     0     0     8   1.560
       375.360353      403.552253      145.041523     1     0     0     0     7   1.560
       113.022533       97.888419      475.357063     1     0     0     0     5   1.560
       384.133479      277.567099      308.479074     1     0     0     0     6   1.560
       393.892330       64.876741      382.460403     1     0     0     0     4   1.560
       298.962328       35.708404      426.336393     1     0     0     0     7   1.560
       168.105370      300.208018      410.203171     1     0     0     0     4   1.560
        20.737524      473.348010      447.601128     1     0     0     0     2   1.560
       442.572953      143.900673      269.738221     1     0     0     0     6   1.560
       327.405495      205.862662      306.828498     1     0     0     0     1   1.560
       225.647505        0.734687      364.092486     1     0     0     0     4   1.560
       197.554230      283.503071       22.218610     1     0     0     0     6   1.560
       248.797761      470.044723        3.191824     1     0     0     0     1   1.560
        37.181535      383.256096      230.043084     1     0     0     0     4   1.560
       394.921235       10.484211       19.054003     1     0     0     0     3   1.560
       140.113132      150.669048      257.878316     1     0     0     0     3   1.560
       490.011857       57.272491      239.611607     1     0     0     0     7   1.560
        80.817825      298.327052      305.346308     1     0     0     0     3   1.560
       110.734260      483.575830      132.438373     1     0     0     0     7   1.560
       342.024701      306.348574       52.452875     1     0     0     0     5   1.560
       252.971309      222.786365       99.920147     1     0     0     0     8   1.560
       240.081298       70.667347      422.399950     1     0     0     0     1   1.560
       207.968102      256.318415      137.920816     1     0     0     0     2   1.560
       116.025719      186.560002      496.550568     1     0     0     0     5   1.560
       391.498976      139.034906      472.653430     1     0     0     0     4   1.560
       353.008166      347.971521      302.801297     1     0     0     0     2   1.560
        75.857084      109.716197      123.739292     1     0     0     0     3   1.560
       389.606935      461.743828      210.210550     1     0     0     0     1   1.560
       200.572417      230.887408      331.092716     1     0     0     0     7   1.560
       284.478362      481.836454      349.693361     1     0     0     0     6   1.560
       126.702154      351.960962      339.506420     1     0     0     0     4   1.560
       102.823870      147.433937      283.565761     1     0     0     0     7   1.560
       224.342432      194.532643       29.500109     1     0     0     0     5   1.560
       230.995074      138.384178      292.144832     1     0     0     0     2   1.560
       491.176737      328.586267      340.489858     1     0     0     0     8   1.560
       196.096684      444.436208      221.678978     1     0     0     0     2   1.560
       227.214004      350.038666      195.717327     1     0     0     0     3   1.560
       170.161023       65.633618      362.169514     1     0     0     0     6   1.560
        31.494003      291.632812      360.536463     1     0     0     0     4   1.560
        75.582369      200.147811      315.880492     1     0     0     0     1   1.560
       345.577321      443.187654      197.935022     1     0     0     0     7   1.560
       208.568065      141.918680       44.007110     1     0     0     0     1   1.560
       428.303596      356.208013       50.439269     1     0     0     0     1   1.560
       129.900385       91.718431      126.990710     1     0     0     0     4   1.560
        28.692954      411.892331      177.297734     1     0     0     0     1   1.560
       318.688633      274.102433      465.853733     1     0     0     0     1   1.560
       309.279414      454.646668      452.874152     1     0     0     0     6   1.560
       150.566401      421.527024      385.800346     1     0     0     0     5   1.560
        18.352171       88.503568      374.792151     1     0     0     0     4   1.560
        11.816008      403.211147      224.955085     1     0     0     0     6   1.560
       108.167026      141.227025       60.676531     1     0     0     0     4   1.560
        39.197661      305.353155      127.261272     1     0     0     0     3   1.560
        83.611572      282.646098      440.108699     1     0     0     0     4   1.560
       322.466051      442.602928      191.902758     1     0     0     0     1   1.560
       291.320166      276.557271      202.075776     1     0     0     0     3   1.560
       442.825469      258.550284      132.977995     1     0     0     0     1   1.560
       422.062272      345.230326      175.122424     1     0     0     0     1   1.560
       132.979234      168.814499       80.247012     1     0     0     0     4   1.560
        57.249065      315.155515      389.791277     1     0     0     0     7   1.560
       171.278761      192.680356      173.090109     1     0     0     0     6   1.560
       360.341855      134.800448      148.466362     1     0     0     0     8   1.560
       112.021604       30.178539      227.594936     1     0     0     0     1   1.560
       485.467354      185.684634       92.600113     1     0     0     0     8   1.560
        92.718398      131.396379        9.035923     1     0     0     0     2   1.560
        61.581582      232.881706      308.090551     1     0     0     0     4   1.560
       497.594304      264.804569      243.725976     1     0     0     0     7   1.560
       496.593888       83.005889      331.016028     1     0     0     0     1   1.560
       346.459000      236.081658      305.429267     1     0     0     0     6   1.560
       164.800862      150.655939      456.085232     1     0     0     0     3   1.560
       165.421664      336.524894      349.635004     1     0     0     0     6   1.560
       224.846428      178.656771      168.484324     1     0     0     0     1   1.560
       495.337819       84.887795      270.245733     1     0     0     0     7   1.560
        53.092231      341.523030      106.269205     1     0     0     0     1   1.560
        94.502340      203.626989      464.943310     1     0     0     0     6   1.560
       193.984383      488.278661      205.932559     1     0     0     0     8   1.560
       142.710193      404.196423      384.271372     1     0     0     0     4   1.560