ITEM: TIMESTEP
0
ITEM: NUMBER OF ATOMS
        7878
ITEM: BOX BOUNDS pp pp pp
  0.0000000E+00   500.000000000000     
  0.0000000E+00   500.000000000000     
  0.0000000E+00   500.000000000000     
ITEM: ATOMS x y z nV nH f3 f4 orient
       395.431832      391.797616      121.449574     1     0     0     0     4
       413.898998      287.946962       10.114805     1     0     0     0     8
       226.984579      477.414716      134.076807     1     0     0     0     3
       210.883711      160.121805      399.845717     1     0     0     0     2
         5.385977       42.174412       38.177843     1     0     0     0     4
       218.558635      405.685952      122.138674     1     0     0     0     7
       156.975560      218.075315      203.515141     1     0     0     0     2
       114.449227      449.754853      491.317655     1     0     0     0     6
       353.362329      112.688964      436.029672     1     0     0     0     3
       464.241023      335.921256      341.154515     1     0     0     0     7
       300.780205      197.327545      446.755691     1     0     0     0     3
       321.959815      122.070668      188.432064     1     0     0     0     7
       103.798286      139.372292      316.558152     1     0     0     0     2
       217.252993       99.739698      404.233510     1     0     0     0     1
       464.685393      215.609458      114.763421     1     0     0     0     6
       490.747757      393.651750      330.881690     1     0     0     0     7
       349.013729       32.617575      400.715580     1     0     0     0     7
       468.840524       80.656704      417.122807     1     0     0     0     6
       282.639738      373.645159      360.142062     1     0     0     0     1
        51.670802       52.257109      471.557972     1     0     0     0     1
       298.492259      479.529084      385.405339     1     0     0     0     8
       124.090215      469.618418        5.271710     1     0     0     0     6
       466.208848       96.604465       83.499571     1     0     0     0     2
       117.804284      196.497883      178.809403     1     0     0     0     7
       267.786913      426.731918      324.486549     1     0     0     0     3
       247.031198      448.196611      460.696032     1     0     0     0     8
       181.248373      175.211821      375.355246     1     0     0     0     8
       175.453836      282.745749       12.994663     1     0     0     0     1
       130.682901      179.337756      397.366545     1     0     0     0     8
       331.446061      343.780848      463.228820     1     0     0     0     7
       316.318320      327.209458      185.073144     1     0     0     0     7
       352.635905      368.593266      176.623337     1     0     0     0     1
       210.130388      296.821612      230.480197     1     0     0     0     6
       272.749786      113.877110        9.700254     1     0     0     0     4
       471.099886      496.456347      286.296885     1     0     0     0     1
       122.914503       39.239278      224.979195     1     0     0     0     5
       398.446901      393.109027      143.397596     1     0     0     0     4
        48.934406      217.756625      203.251179     1     0     0     0     3
       198.789675      331.060302      385.057130     1     0     0     0     3
       154.804248      350.021060      105.044361     1     0     0     0     8
        99.986543      209.183110       38.196055     1     0     0     0     6
        26.951252      120.284800       30.552437     1     0     0     0     6
       115.693964       14.309444       28.888940     1     0     0     0     1
       277.859476       54.731031      252.888515     1     0     0     0     7
       317.418951      291.492115      223.671431     1     0     0     0     6
       348.033475      147.674572      376.502205     1     0     0     0     4
       185.055380      494.497176       17.697114     1     0     0     0     8
       456.742393      271.003292       97.060581     1     0     0     0     5
       132.699019      248.393136      475.488737     1     0     0     0     8
        98.396230       70.877711      147.351364     1     0     0     0     3
       348.521884      345.967002       49.181334     1     0     0     0     6
       354.976138      450.970684       90.190516     1     0     0     0     4
       133.664481      193.965360       85.446725     1     0     0     0     6
       403.581695      231.830305      450.680876     1     0     0     0     2
       199.065151      304.491444      114.546967     1     0     0     0     4
       271.890346       45.062882      145.706161     1     0     0     0     5
       213.923140      185.324838       45.660388     1     0     0     0     8
        95.914569       63.345974      476.746575     1     0     0     0     7
       289.668808      213.465166      110.743070     1     0     0     0     3
        24.321401      366.448524       35.803158     1     0     0     0     2
       321.132098       65.386258      101.022560     1     0     0     0     1
       280.429376      255.396098      119.679753     1     0     0     0     8
       328.637502      171.828119      337.014011     1     0     0     0     2
       323.002910      360.562761      182.843809     1     0     0     0     1
        50.776392      222.925784      305.667386     1     0     0     0     4
       442.087422      260.396202      122.470879     1     0     0     0     7
       294.890226      409.062987      411.286021     1     0     0     0     4
       219.593997       62.750770      447.132785     1     0     0     0     6
       362.257398       20.288039      263.846920     1     0     0     0     8
        83.045227      280.001498      213.985390     1     0     0     0     7
       376.517593      166.646666      436.631853     1     0     0     0     3
       437.820666      147.138180      413.545970     1     0     0     0     8
       492.473212      437.717491      159.447505     1     0     0     0     6
       384.852763      456.063075      178.048562     1     0     0     0     4
        86.999472       15.082166      149.555880     1     0     0     0     7
         2.460155       50.445686      414.742106     1     0     0     0     8
       498.825543      220.488989      330.053403     1     0     0     0     5
       286.339593      464.706347       25.244798     1     0     0     0     6
        72.203126      138.981963      324.315309     1     0     0     0     4
       265.011012      482.832556      379.549204     1     0     0     0     6
       173.982194      398.874498      203.730043     1     0     0     0     3
        55.643341      264.218714      160.553678     1     0     0     0     5
       191.717392       38.583995       93.943390     1     0     0     0     5
        78.141964      443.187511       70.368819     1     0     0     0     7
        22.986864      403.278040      147.771748     1     0     0     0     2
       248.767095      345.227439      186.486194     1     0     0     0     1
        70.785814      289.731894      413.157969     1     0     0     0     4
        54.141107      355.200435      430.199873     1     0     0     0     4
       213.487247      123.023031      227.894861     1     0     0     0     3
       458.856582      435.974681       87.026194     1     0     0     0     6
       168.681417      390.672312      414.854025     1     0     0     0     8
       435.270491      496.155101       32.234202     1     0     0     0     7
       154.006580      154.143765      362.365099     1     0     0     0     5
       112.840413      207.793241      442.944137     1     0     0     0     3
       424.644385      262.017881      475.319228     1     0     0     0     7
       305.387508       75.528460      192.430230     1     0     0     0     4
       367.523135      289.478641      397.027443     1     0     0     0     5
       449.645932      416.953827      434.696602     1     0     0     0     5
       111.067925      243.382885      424.347145     1     0     0     0     1
       381.440261      417.409196      245.176042     1     0     0     0     7
       301.272880        6.102927      128.919291     1     0     0     0     2
        66.769142      210.328213      469.968091     1     0     0     0     4
       334.105208      320.005192      490.835837     1     0     0     0     4
       461.663599       39.291939      179.815139     1     0     0     0     7
         9.692678      307.191273      448.575835     1     0     0     0     6
       220.496274      267.467453       32.075538     1     0     0     0     6
       402.772657      268.295748      123.979354     1     0     0     0     1
       464.845323      170.475741      198.048415     1     0     0     0     6
       498.298359      316.059110      484.828206     1     0     0     0     2
        32.950761      253.829736       78.837081     1     0     0     0     8
       171.719870      459.172243      116.661192     1     0     0     0     8
       219.101627       23.100941      134.597107     1     0     0     0     5
       275.241075      130.112860      332.860030     1     0     0     0     5
       254.239402        4.178067      345.783869     1     0     0     0     3
       427.254902      142.176974      104.989348     1     0     0     0     7
       285.377401      206.622157      431.384024     1     0     0     0     6
       467.722106      141.407806      299.684044     1     0     0     0     1
       179.135896      357.636548      418.702004     1     0     0     0     1
        99.049210      455.020596      361.785680     1     0     0     0     6
       283.790565      234.415857       44.678551     1     0     0     0     7
       466.331861      438.963075      326.249125     1     0     0     0     2
        66.439125       83.620499      247.380435     1     0     0     0     1
       213.042206      228.021702      482.832550     1     0     0     0     1
       341.749171      170.762660      340.960322     1     0     0     0     8
       205.475641      400.695516      287.626365     1     0     0     0     3
       317.425019      390.492902      222.176115     1     0     0     0     1
       106.518467      147.551055      298.376099     1     0     0     0     5
        66.199140      253.194636        1.258233     1     0     0     0     3
       112.099659      416.746944       17.581206     1     0     0     0     3
        97.746884      107.408012      156.131776     1     0     0     0     8
       236.816769      496.766801      299.897271     1     0     0     0     8
       313.256756      271.720273      397.540024     1     0     0     0     1
        25.494022      245.452368      113.660525     1     0     0     0     6
       489.764490        1.336701      468.447639     1     0     0     0     3
       133.251804      429.297806      171.892037     1     0     0     0     2
       431.647652      211.621931      192.253732     1     0     0     0     3
       487.256528      172.276318      209.880813     1     0     0     0     7
       434.930574       98.490295       71.419499     1     0     0     0     6
       474.880399      223.535964       96.606955     1     0     0     0     6
       164.017228      296.961475      229.156105     1     0     0     0     3
         9.840895      175.877548      428.993173     1     0     0     0     2
       321.835525      314.451092      134.391386     1     0     0     0     2
       193.625831       90.430329      318.053089     1     0     0     0     5
       454.842918      116.221292      224.046879     1     0     0     0     2
       450.313951       99.031727      235.343660     1     0     0     0     7
       258.009222       27.721854      423.515734     1     0     0     0     2
       499.900138      241.849542      486.497871     1     0     0     0     1
        53.718499      468.138431      464.960282     1     0     0     0     3
       276.104131      258.418161      101.354433     1     0     0     0     7
       428.952710      259.693918      164.636474     1     0     0     0     5
       189.789644      458.428236      143.957110     1     0     0     0     5
       378.005958      395.140636      366.147687     1     0     0     0     3
       495.299515      430.081184      164.747298     1     0     0     0     3
       273.989700      458.919345      264.140245     1     0     0     0     2
        96.402179      254.023881      277.249908     1     0     0     0     4
       348.523123      338.415792      404.564103     1     0     0     0     4
       147.923358       62.891105      361.417278     1     0     0     0     1
       281.264777      201.794747      254.311825     1     0     0     0     5
       367.559561      343.986378      152.433153     1     0     0     0     7
       256.447757      470.338353      419.237410     1     0     0     0     4
       492.472442      129.953119       50.457836     1     0     0     0     8
       377.133322      138.812738      390.275772     1     0     0     0     1
       226.715409      227.094019      166.515837     1     0     0     0     8
       114.794717      152.906427      261.819306     1     0     0     0     6
       308.808121      389.491614      462.621634     1     0     0     0     2
       284.697099      436.212189        0.718862     1     0     0     0     8
        67.667769      230.128921       94.038736     1     0     0     0     2
       360.577873      437.248056      271.551021     1     0     0     0     3
       333.471409       21.965896      291.866890     1     0     0     0     8
       108.215744      238.483044       92.037486     1     0     0     0     2
       411.029248      357.281769        5.655894     1     0     0     0     4
        21.513901      499.423377      431.821542     1     0     0     0     6
       422.567561      297.209843      114.736045     1     0     0     0     7
       477.673592      428.272788      119.918168     1     0     0     0     3
       499.549580      115.227605      252.704054     1     0     0     0     7
       142.072685      200.139056       87.823081     1     0     0     0     4
        51.278921       55.416861      271.965397     1     0     0     0     3
       453.392644      452.967317      356.409779     1     0     0     0     6
        39.006377      162.992459      472.636505     1     0     0     0     4
       145.549615      435.721449      185.031690     1     0     0     0     8
       338.062867      144.554221      484.251294     1     0     0     0     5
       428.812119      363.257003       68.441085     1     0     0     0     3
       148.809814      373.687108      208.567416     1     0     0     0     4
       344.389733      198.466310      311.369085     1     0     0     0     5
       406.416883      427.572848       82.485197     1     0     0     0     4
       362.487733       20.013434      406.273725     1     0     0     0     4
       215.738642       73.519929      332.894226     1     0     0     0     2
        95.722802      282.928361      269.281716     1     0     0     0     7
       251.246594      167.176756       38.134873     1     0     0     0     5
       138.029759      481.243806       34.417876     1     0     0     0     4
       478.455955      443.102037       79.804578     1     0     0     0     3
       226.844341       33.286096      220.842202     1     0     0     0     3
       454.108753      474.461146      236.650813     1     0     0     0     4
       258.946764      420.924507        4.605568     1     0     0     0     3
       102.767953        8.063474      430.507770     1     0     0     0     1
       130.024465      400.685365      104.231121     1     0     0     0     1
       420.676001        4.748372      155.704592     1     0     0     0     7
        86.044500      156.753626      215.464698     1     0     0     0     7
       315.158140      455.634537       62.656307     1     0     0     0     3
       488.635255      109.924111      312.302541     1     0     0     0     7
       170.793291      222.968576       91.641102     1     0     0     0     4
       447.760697      479.628193      110.851008     1     0     0     0     6
        72.398811       61.794680      111.984164     1     0     0     0     8
        19.515570      121.532437      299.016283     1     0     0     0     3
       247.624314      386.624343      312.963009     1     0     0     0     4
       337.532182      414.550765      433.892930     1     0     0     0     5
       335.535200      431.845798      224.868171     1     0     0     0     2
       346.290082      315.068338      339.653013     1     0     0     0     3
        21.662721      346.299200      486.965558     1     0     0     0     7
        35.004996      201.515324       51.644332     1     0     0     0     3
       411.336368        0.053883       54.041002     1     0     0     0     4
       333.661573      425.539365       90.982659     1     0     0     0     2
       373.747830      424.235076       52.046156     1     0     0     0     2
       161.909033      333.279140      332.345210     1     0     0     0     6
         1.917312      446.254728        7.843783     1     0     0     0     7
       499.580491      357.008257      252.373812     1     0     0     0     6
       499.350883      153.911169      137.077202     1     0     0     0     3
        22.801944      204.223671      195.330790     1     0     0     0     2
       302.038653       72.676196      394.818578     1     0     0     0     3
       122.132442      192.930956       92.597912     1     0     0     0     8
       205.996999      240.624468      127.127915     1     0     0     0     4
        29.273021      468.946740      300.918664     1     0     0     0     2
       396.701285      450.212816      196.194767     1     0     0     0     4
       383.247693      167.122953      269.002192     1     0     0     0     7
       220.917944      412.861848      217.786157     1     0     0     0     6
       163.902001      157.305127      264.554913     1     0     0     0     2
        75.178171      325.674731      411.157531     1     0     0     0     1
       194.495261      381.264894      157.090843     1     0     0     0     8
       409.649195      237.378017       99.454507     1     0     0     0     5
       457.587997      392.366699      414.518021     1     0     0     0     1
       212.115783      237.762979      110.302473     1     0     0     0     1
       498.993289      126.671870      474.003795     1     0     0     0     4
        57.151469       18.607281      462.395139     1     0     0     0     7
       473.946389      100.602639      435.155438     1     0     0     0     5
       446.364571      319.405665      376.896616     1     0     0     0     4
       437.380848      105.132887      220.050701     1     0     0     0     1
       401.093995      353.823363      193.924119     1     0     0     0     8
       101.703108      118.427621      364.309582     1     0     0     0     1
       323.236634       62.113191      460.408778     1     0     0     0     6
       468.514425      198.786286      336.056496     1     0     0     0     5
        80.346408      155.840688        5.665318     1     0     0     0     4
        44.712323      211.169952      239.210603     1     0     0     0     4
        22.166960       30.328187      173.079771     1     0     0     0     4
        79.113534      415.552450      126.547111     1     0     0     0     2
        16.672684      399.747126      437.293857     1     0     0     0     1
       134.070385      276.117953      148.722236     1     0     0     0     7
        71.031787      428.446917      143.044376     1     0     0     0     3
       345.615432      166.542662      420.410268     1     0     0     0     8
       245.806079       15.940060      180.470442     1     0     0     0     5
       353.732066      344.073280       33.272220     1     0     0     0     7
       252.406873      496.810241      246.827876     1     0     0     0     1
       472.845750      253.745249       47.501163     1     0     0     0     3
       255.214073      303.274148      221.630558     1     0     0     0     2
        38.476403       27.910971      398.733279     1     0     0     0     1
       480.938004      283.970966       77.372261     1     0     0     0     3
       229.937982       20.939499      288.271987     1     0     0     0     6
       345.047191      142.814790       67.133007     1     0     0     0     6
       171.871124      201.734444      121.012497     1     0     0     0     5
       172.771677      331.542127      421.173386     1     0     0     0     5
         8.428706      471.797512      288.421220     1     0     0     0     3
       111.541259      455.410723      346.025928     1     0     0     0     5
        59.047271      481.703177      121.127237     1     0     0     0     4
       371.605189      311.310419      481.065544     1     0     0     0     2
       367.848793      368.481909      431.274728     1     0     0     0     4
       162.785310      488.563088       87.481469     1     0     0     0     6
       497.734067       18.267892      218.764231     1     0     0     0     1
       218.165529       91.065140      255.044039     1     0     0     0     8
       226.408161       57.676939      377.686446     1     0     0     0     4
       293.689650       47.952227      442.017251     1     0     0     0     6
       383.026233       85.231790      156.407534     1     0     0     0     1
       356.297168      394.250402       79.553276     1     0     0     0     7
       403.972875      210.831712      246.601978     1     0     0     0     7
       423.484305      488.399989       30.809770     1     0     0     0     7
        87.091342      249.783710      361.042918     1     0     0     0     5
       495.136670      380.012659       67.492161     1     0     0     0     3
        82.059045       48.888920       92.604569     1     0     0     0     4
       425.681685      331.934069      131.586809     1     0     0     0     5
       117.483228      248.555086      456.078845     1     0     0     0     8
       206.858671      260.471171      348.533195     1     0     0     0     1
       186.452257      173.958031      469.655536     1     0     0     0     5
       181.789826      321.203583      422.892842     1     0     0     0     6
       198.294290      180.678157      410.437732     1     0     0     0     7
       227.527209      479.004866      444.121990     1     0     0     0     7
       175.030115       34.689785      259.887884     1     0     0     0     7
       195.844705      253.800062      372.013619     1     0     0     0     7
        49.377621       91.737562       29.614329     1     0     0     0     2
        38.991553      345.120595      448.693198     1     0     0     0     5
       358.655175      402.957164      279.005923     1     0     0     0     2
       245.964489      254.615174      104.837853     1     0     0     0     1
        29.079536      481.352089      184.004960     1     0     0     0     2
       486.568869      223.737623      112.031700     1     0     0     0     1
       324.384166      416.743541       31.671814     1     0     0     0     8
       489.056797      114.695108      288.168085     1     0     0     0     8
       161.345307       20.725620      231.469355     1     0     0     0     1
       460.730649      340.871023      277.984727     1     0     0     0     6
        85.921857      272.364073      239.829031     1     0     0     0     8
        64.569788      448.442973      246.488113     1     0     0     0     4
       354.806583      106.223838      208.847299     1     0     0     0     8
       204.503697       35.805259      163.308147     1     0     0     0     7
       320.862049      281.608977      275.683735     1     0     0     0     6
       113.539028       85.028172       71.044107     1     0     0     0     5
       105.901447      322.202527      414.700415     1     0     0     0     5
       168.898300      328.059881      360.769422     1     0     0     0     2
       323.070072       42.024933      398.127842     1     0     0     0     2
       426.024492      473.601679      258.543258     1     0     0     0     2
       218.219082      195.489533      333.443099     1     0     0     0     4
       248.243177      335.888454      156.119441     1     0     0     0     7
       298.365862      483.749006       68.912221     1     0     0     0     4
       255.004542      174.265928      118.908925     1     0     0     0     1
       220.030478       26.014019      221.667254     1     0     0     0     7
       370.799247      365.306841       36.459206     1     0     0     0     6
       300.800141      258.205560       64.612547     1     0     0     0     4
       314.979559      413.350157      442.922777     1     0     0     0     6
       490.716065       81.432029       43.286441     1     0     0     0     8
       391.187861      462.916280      372.807194     1     0     0     0     3
       335.616241      170.735204      246.311450     1     0     0     0     6
       292.808581      272.765258      140.128304     1     0     0     0     7
        63.725618      473.687773      339.513862     1     0     0     0     7
        32.587958       92.974889      488.909743     1     0     0     0     3
       185.009498      309.739370       38.610278     1     0     0     0     7
        35.788814      251.507249      332.339539     1     0     0     0     6
        12.011971      447.484631       16.962876     1     0     0     0     7
       360.199493      308.282049      462.243442     1     0     0     0     1
       488.667464       19.179509      134.932288     1     0     0     0     1
        29.197310       12.804496      449.729850     1     0     0     0     5
       363.307341      479.580394       53.012300     1     0     0     0     1
       302.623729      378.464991      337.491680     1     0     0     0     6
       444.365625      117.137400      196.821766     1     0     0     0     8
       201.939787      319.819883      148.659454     1     0     0     0     2
       149.544972       45.621298      245.164219     1     0     0     0     6
       429.769522      100.977289      154.102718     1     0     0     0     4
        42.284392      471.592880       81.587438     1     0     0     0     3
       299.387967      491.225129      367.549717     1     0     0     0     7
       251.907553       96.245086      177.740607     1     0     0     0     3
       360.972176       63.924744      462.120546     1     0     0     0     4
       322.941493      294.831457      328.619905     1     0     0     0     5
        24.057454       61.784918      131.494536     1     0     0     0     8
       220.358143      469.909166       90.015489     1     0     0     0     7
       216.278061      228.866533      269.375289     1     0     0     0     8
       457.071463      414.222592      247.686460     1     0     0     0     5
       349.924870       13.453935       44.056040     1     0     0     0     4
        24.813548      411.966753      414.978411     1     0     0     0     7
       386.088556      199.735943       74.503759     1     0     0     0     5
       261.505484      290.015815       15.605826     1     0     0     0     8
       372.669955      460.374385      216.330737     1     0     0     0     5
       189.719017      338.444740      487.656266     1     0     0     0     4
       214.038611      245.840785      442.569454     1     0     0     0     4
       356.344061      456.643766      381.372598     1     0     0     0     2
       307.908408      366.618835      187.283973     1     0     0     0     5
       373.182934       27.834163        9.917516     1     0     0     0     7
        52.842547      313.537219      102.432425     1     0     0     0     7
       131.826587      100.975103      260.748213     1     0     0     0     3
       307.940573      374.397805      397.668105     1     0     0     0     1
       380.528109      292.673292      497.682579     1     0     0     0     2
        33.349828      390.780568      241.714859     1     0     0     0     2
       125.103152       71.234096      466.993860     1     0     0     0     7
       449.876213      105.216231       54.650079     1     0     0     0     8
       116.914207      153.540594       44.525030     1     0     0     0     6
       136.637909      397.163559      265.418824     1     0     0     0     4
       334.173844      179.230050      123.320475     1     0     0     0     2
       409.423958      123.112360       28.293355     1     0     0     0     1
       188.848786      109.704484      166.800476     1     0     0     0     3
       479.809763      246.423965      465.275899     1     0     0     0     8
       140.624852      125.386527      415.241979     1     0     0     0     3
       114.452065      364.295924      181.018779     1     0     0     0     1
       187.372950      330.489364      181.929794     1     0     0     0     3
       136.280338      191.844730       31.157025     1     0     0     0     4
       281.643786      363.950028      460.534201     1     0     0     0     5
        47.020561       88.802158      358.301399     1     0     0     0     3
       265.174858      263.002966      282.642161     1     0     0     0     4
       402.293083      241.272455       34.721891     1     0     0     0     3
       195.107413      269.262260      274.329067     1     0     0     0     2