ITEM: TIMESTEP
0
ITEM: NUMBER OF ATOMS
        7874
ITEM: BOX BOUNDS pp pp pp
  0.0000000E+00   500.000000000000     
  0.0000000E+00   500.000000000000     
  0.0000000E+00   500.000000000000     
ITEM: ATOMS x y z f1 f2 f3 f4 orient radius
       349.829690      493.786802      202.206241     1     0     0     0     6   1.560
       127.763814      147.200335      173.276865     1     0     0     0     2   1.560
       238.826985      334.869842      416.704524     1     0     0     0     3   1.560
       422.917855      107.262479      220.084505     1     0     0     0     5   1.560
       312.925345       57.507735      469.398158     1     0     0     0     5   1.560
       147.260149      104.840897      116.506163     1     0     0     0     1   1.560
       164.405853       23.649835      143.347911     1     0     0     0     8   1.560
       401.781214      137.372532       35.937539     1     0     0     0     4   1.560
       316.915191      443.961025      297.029469     1     0     0     0     8   1.560
       324.591571       79.912253       95.542615     1     0     0     0     6   1.560
       264.694759      167.612026      361.021769     1     0     0     0     7   1.560
       458.256356      427.968822      291.175080     1     0     0     0     4   1.560
       220.926002      367.757198      384.654811     1     0     0     0     4   1.560
        88.027274      247.755700       34.395849     1     0     0     0     1   1.560
       432.628328      290.651166       91.755224     1     0     0     0     8   1.560
       379.367075       29.290206      301.338990     1     0     0     0     3   1.560
       104.446282      249.303641      398.657280     1     0     0     0     1   1.560
        66.650172        3.266702      264.064184     1     0     0     0     5   1.560
        87.830044      300.780104      414.972897     1     0     0     0     8   1.560
        76.314657       62.790098      362.382040     1     0     0     0     4   1.560
       136.682349      289.386018      479.548046     1     0     0     0     2   1.560
       436.608726      266.701578      227.034791     1     0     0     0     1   1.560
       456.883029      178.958682      325.390310     1     0     0     0     3   1.560
         5.033999       65.104659      331.730534     1     0     0     0     6   1.560
        98.101572       62.388541      348.028090     1     0     0     0     7   1.560
       274.066439      325.214904      384.609470     1     0     0     0     2   1.560
       385.135183      241.771070      214.283139     1     0     0     0     8   1.560
       315.036039      183.560745      243.278914     1     0     0     0     3   1.560
       206.781454      457.684825      172.490592     1     0     0     0     3   1.560
       392.764605      321.077195      405.362621     1     0     0     0     8   1.560
       354.352868      382.891966      210.328323     1     0     0     0     6   1.560
       383.109915       30.024898      261.565718     1     0     0     0     1   1.560
       343.769151       72.222581      324.343949     1     0     0     0     7   1.560
       297.760273      204.366891      419.704926     1     0     0     0     7   1.560
       400.742212      349.535494      198.887450     1     0     0     0     8   1.560
       129.437021        4.603161      101.168309     1     0     0     0     8   1.560
       102.730559      130.391551       24.910114     1     0     0     0     3   1.560
       307.258957      474.229010      125.645416     1     0     0     0     3   1.560
       251.703464      206.523688      466.918896     1     0     0     0     4   1.560
        84.544788      308.599088      468.673656     1     0     0     0     3   1.560
         9.877914      433.557911      178.252360     1     0     0     0     1   1.560
        58.206906      130.531653      401.114649     1     0     0     0     7   1.560
       495.103529      247.195910      222.589244     1     0     0     0     6   1.560
       475.729387      228.357430      439.226805     1     0     0     0     7   1.560
       375.910156       86.577727      357.388726     1     0     0     0     3   1.560
       179.470450      415.416965       48.289058     1     0     0     0     8   1.560
       227.094083      483.208371      295.686769     1     0     0     0     6   1.560
       335.509776       60.807044      198.670497     1     0     0     0     2   1.560
       327.213733       46.213529      381.186367     1     0     0     0     7   1.560
       281.085501      447.802006       24.135620     1     0     0     0     7   1.560
       447.220345      473.966356       14.255365     1     0     0     0     7   1.560
       418.688636      430.110593      276.483164     1     0     0     0     1   1.560
        52.279623      169.916769      493.293672     1     0     0     0     7   1.560
       482.560378      160.650519      320.410834     1     0     0     0     2   1.560
       409.387866      465.092149       97.679067     1     0     0     0     7   1.560
       399.003772       54.522265      154.358739     1     0     0     0     5   1.560
       480.519919      190.684134       46.552025     1     0     0     0     2   1.560
       497.806113       84.323575      476.994120     1     0     0     0     6   1.560
       296.442542      446.930255       97.599737     1     0     0     0     8   1.560
        38.100554       68.792399      255.791530     1     0     0     0     2   1.560
       315.853719      141.765035      341.847471     1     0     0     0     3   1.560
       270.277822      475.431782      169.659651     1     0     0     0     3   1.560
       450.201779       58.818848      161.868332     1     0     0     0     5   1.560
       199.813880      324.350727      188.131818     1     0     0     0     4   1.560
       320.665677      378.513494      142.768249     1     0     0     0     3   1.560
       138.570192       72.970742       17.807182     1     0     0     0     7   1.560
       305.291783      468.877980      334.570420     1     0     0     0     7   1.560
       109.220835       88.306658      483.275253     1     0     0     0     4   1.560
       213.862189      458.671773      140.711095     1     0     0     0     8   1.560
        25.945989       30.930815      306.861896     1     0     0     0     2   1.560
         7.522385      345.847985      318.163236     1     0     0     0     3   1.560
       229.837397      382.639256      441.269493     1     0     0     0     4   1.560
        34.841658      178.801105        5.860107     1     0     0     0     3   1.560
       305.402847        4.629180      316.518064     1     0     0     0     3   1.560
        57.342403      260.390674      425.581078     1     0     0     0     1   1.560
       369.502670      419.049621      278.033290     1     0     0     0     8   1.560
       416.732254      298.993520      434.916998     1     0     0     0     2   1.560
        51.006791      385.958470      298.389443     1     0     0     0     6   1.560
       204.622389       59.606808       94.019550     1     0     0     0     4   1.560
       226.765578        0.362033      402.400314     1     0     0     0     3   1.560
         9.068085       54.436889      136.405720     1     0     0     0     7   1.560
       261.822651      414.111551      127.999263     1     0     0     0     8   1.560
       380.180641      409.768568      115.165787     1     0     0     0     5   1.560
       106.716500      190.625227      153.742607     1     0     0     0     5   1.560
       180.034538      222.247678      470.889273     1     0     0     0     4   1.560
        46.994890      146.168029      475.816424     1     0     0     0     3   1.560
       446.083464      258.092108       71.638418     1     0     0     0     7   1.560
       496.488506      191.906586      457.300411     1     0     0     0     3   1.560
       103.592182       73.583946       65.565860     1     0     0     0     2   1.560
       416.109638       53.976350      248.425198     1     0     0     0     8   1.560
       147.957333      479.889255      482.222821     1     0     0     0     4   1.560
       309.811207      307.637720       50.478652     1     0     0     0     5   1.560
       387.685230      356.363008      367.003485     1     0     0     0     3   1.560
       492.958492      174.137587      273.761865     1     0     0     0     2   1.560
       364.176901      467.959992      222.463895     1     0     0     0     2   1.560
       244.612887      256.741692      375.733379     1     0     0     0     2   1.560
       116.708578      167.520631      324.127296     1     0     0     0     8   1.560
       397.317510      135.158664       29.027217     1     0     0     0     7   1.560
       280.523892       24.285456      171.449638     1     0     0     0     5   1.560
       138.432350      186.541634      142.152285     1     0     0     0     1   1.560
       165.658411      380.507970      225.669995     1     0     0     0     2   1.560
       334.925034      484.279329      153.165801     1     0     0     0     4   1.560
       223.222470      119.627601      298.353282     1     0     0     0     5   1.560
       344.962495      358.969149      317.921441     1     0     0     0     3   1.560
       409.034731      419.206972      387.926957     1     0     0     0     3   1.560
       174.067219      190.395867      329.086640     1     0     0     0     4   1.560
       253.146354      266.282406      412.433765     1     0     0     0     4   1.560
       130.857622       70.516087       33.250756     1     0     0     0     5   1.560
       136.494658      379.199116      121.628850     1     0     0     0     7   1.560
       433.986203       13.338130      476.750342     1     0     0     0     7   1.560
       390.129345      432.478188      464.775152     1     0     0     0     8   1.560
       314.248583      195.015918       77.417418     1     0     0     0     1   1.560
       322.404090      139.329148      401.250287     1     0     0     0     6   1.560
       410.785214       61.570146      414.192391     1     0     0     0     2   1.560
       140.427800       29.655898      443.156573     1     0     0     0     1   1.560
       146.122495      279.315998      375.036614     1     0     0     0     1   1.560
         6.162046      188.841246      313.244432     1     0     0     0     1   1.560
        73.675631      100.173578      140.365173     1     0     0     0     7   1.560
       219.477541      427.212225      394.034413     1     0     0     0     8   1.560
       175.432477      376.471816      276.139179     1     0     0     0     3   1.560
       154.096219      373.259596      369.114069     1     0     0     0     7   1.560
        54.504932      214.881232      357.593466     1     0     0     0     8   1.560
       456.588611      417.967999      114.625175     1     0     0     0     2   1.560
       162.605830       46.135903      138.485434     1     0     0     0     1   1.560
       381.331394      159.276124      254.505418     1     0     0     0     7   1.560
       122.866518      238.746178      135.267700     1     0     0     0     8   1.560
       241.024564      414.240704       89.540235     1     0     0     0     5   1.560
       418.537749      379.265398      477.240035     1     0     0     0     2   1.560
       407.663694      449.698792      285.886200     1     0     0     0     4   1.560
       183.264374      485.304588      473.592081     1     0     0     0     1   1.560
       261.874881       42.514888      346.373429     1     0     0     0     6   1.560
         6.409291       92.639677      317.457438     1     0     0     0     1   1.560
       477.052167      220.610047      188.481200     1     0     0     0     6   1.560
       165.158669      220.028796      262.780432     1     0     0     0     2   1.560
       494.620383       17.614939       12.244761     1     0     0     0     8   1.560
       499.986438      289.853111      144.656323     1     0     0     0     3   1.560
       212.378560      385.885011       88.024057     1     0     0     0     5   1.560
       423.656284       77.142414       79.223159     1     0     0     0     3   1.560
       483.627958      186.216635      347.275502     1     0     0     0     7   1.560
       402.809429       21.734678      448.447724     1     0     0     0     7   1.560
       421.571718      155.630254      164.657932     1     0     0     0     1   1.560
       439.899648      420.833096      267.797236     1     0     0     0     2   1.560
       177.866105       39.638989      461.215478     1     0     0     0     4   1.560
       436.130568      410.017650      468.548804     1     0     0     0     1   1.560
       188.708375       72.337939      194.009120     1     0     0     0     8   1.560
       244.461941       45.496536      220.818114     1     0     0     0     7   1.560
       476.660792      492.538796      375.509792     1     0     0     0     5   1.560
        38.174199      486.631446      495.557489     1     0     0     0     5   1.560
        40.251184      340.607088      446.460474     1     0     0     0     1   1.560
       406.272136      451.031269      277.945060     1     0     0     0     6   1.560
       372.378005      108.657426      187.044709     1     0     0     0     1   1.560
        66.528671       74.179437       11.866405     1     0     0     0     8   1.560
       234.428447      190.261522       46.743689     1     0     0     0     7   1.560
       458.083605      158.997201      475.731825     1     0     0     0     8   1.560
       103.570249      386.324860      178.821519     1     0     0     0     3   1.560
       355.229108      459.632980      145.502695     1     0     0     0     3   1.560
        70.748658      285.188260      393.963465     1     0     0     0     2   1.560
       350.475231       32.062106      252.374900     1     0     0     0     3   1.560
       481.517511      280.494941      408.258905     1     0     0     0     7   1.560
       141.258310      259.654447      457.615713     1     0     0     0     6   1.560
       235.987549       73.813717      444.781881     1     0     0     0     5   1.560
       147.995701      425.553827      169.622067     1     0     0     0     8   1.560
       464.706478      340.422217      224.157741     1     0     0     0     4   1.560
       462.243175      137.030327       43.334928     1     0     0     0     7   1.560
       484.836807      444.798059      168.583591     1     0     0     0     4   1.560
       333.874236      160.535856      409.591479     1     0     0     0     4   1.560
       287.669253      442.460697      373.409589     1     0     0     0     7   1.560
        67.846289      491.059474      259.425844     1     0     0     0     5   1.560
       295.252391      376.254515       78.090536     1     0     0     0     3   1.560
        52.048068      378.698536       92.291187     1     0     0     0     2   1.560
        37.714400      172.261857      348.079895     1     0     0     0     1   1.560
       410.076264      143.923884      396.495261     1     0     0     0     4   1.560
       240.446531      106.496546      179.181435     1     0     0     0     3   1.560
       295.692159       54.884108       83.822329     1     0     0     0     4   1.560
       446.664146       41.603398      165.735306     1     0     0     0     5   1.560
        69.652263        3.677055      392.255407     1     0     0     0     3   1.560
        10.098210      270.445232      394.264972     1     0     0     0     7   1.560
       132.873435      397.874959      369.662075     1     0     0     0     3   1.560
       346.315686       69.064939      439.131800     1     0     0     0     6   1.560
       119.556207      323.704816      251.797624     1     0     0     0     5   1.560
       216.258847      472.397915      467.016833     1     0     0     0     2   1.560
       335.571044      414.423587      140.671079     1     0     0     0     2   1.560
       426.104862      298.280633      327.788605     1     0     0     0     7   1.560
       221.324578       82.049612      309.360173     1     0     0     0     6   1.560
       422.967212      398.606858      157.759878     1     0     0     0     4   1.560
       199.118680       35.535293      404.291708     1     0     0     0     7   1.560
       196.866983      443.682943      109.694814     1     0     0     0     8   1.560
       326.237848      121.609779      450.387342     1     0     0     0     1   1.560
       185.938075      266.267371       77.970331     1     0     0     0     6   1.560
       281.412643      170.276450       45.153946     1     0     0     0     4   1.560
       494.080097       71.991681      103.172059     1     0     0     0     3   1.560
       155.713991      443.090898      404.247139     1     0     0     0     7   1.560
       260.073045      259.893680      204.429826     1     0     0     0     6   1.560
        61.623795      105.683472      433.364558     1     0     0     0     2   1.560
       256.661165      206.289668       87.584420     1     0     0     0     3   1.560
       180.068678       42.171852       80.128679     1     0     0     0     6   1.560
       170.314097      196.593133      186.185428     1     0     0     0     4   1.560
       165.306878      103.593061      160.668735     1     0     0     0     7   1.560
       340.837990      217.544430       63.632419     1     0     0     0     6   1.560
        90.572568      447.161889      465.246707     1     0     0     0     3   1.560
       372.293539      160.891722      393.806801     1     0     0     0     5   1.560
       142.880722      186.328642      419.695438     1     0     0     0     2   1.560
        37.093258      135.498516      350.988782     1     0     0     0     2   1.560
       331.101256      414.416942      425.041238     1     0     0     0     7   1.560
       194.144037      376.522883        8.358977     1     0     0     0     2   1.560
       178.842249      431.747074      184.000340     1     0     0     0     8   1.560
       489.268662      200.296522       93.107172     1     0     0     0     5   1.560
       253.630031      453.727426       42.094494     1     0     0     0     8   1.560
       141.157653       61.359906      393.101481     1     0     0     0     1   1.560
        12.421373      194.404384      116.465938     1     0     0     0     6   1.560
       165.997996      359.988638      435.972662     1     0     0     0     5   1.560
       124.857057      370.588083       66.440329     1     0     0     0     1   1.560
       225.380727      168.247255       59.745623     1     0     0     0     2   1.560
       234.931434      139.129360      471.662459     1     0     0     0     5   1.560
        97.268408      221.748083      306.725641     1     0     0     0     4   1.560
       435.353225      368.095932       82.360688     1     0     0     0     7   1.560
       310.489134      247.666554       90.585074     1     0     0     0     4   1.560
       309.098747      466.712729      471.858652     1     0     0     0     1   1.560
       113.664533      127.441996      237.020306     1     0     0     0     2   1.560
       116.195476       10.806664      283.517120     1     0     0     0     4   1.560
       468.659811       19.188854      417.604413     1     0     0     0     4   1.560
       241.654577      131.483062      218.829313     1     0     0     0     4   1.560
        44.585064      332.689691      402.709306     1     0     0     0     5   1.560
       216.334299      461.174019      407.706342     1     0     0     0     4   1.560
        25.879491      201.737350      114.604639     1     0     0     0     8   1.560
       341.910850       44.294339       50.817379     1     0     0     0     7   1.560
       426.244504       53.011169      204.821485     1     0     0     0     8   1.560
       230.343891      479.383577       79.731404     1     0     0     0     6   1.560
       381.018318       26.233541      134.434354     1     0     0     0     1   1.560
       311.833814      108.459015      216.825304     1     0     0     0     1   1.560
       424.926936      471.465688       91.384159     1     0     0     0     8   1.560
        58.708061      109.378803      229.897636     1     0     0     0     3   1.560
       408.975463      341.506477       60.596351     1     0     0     0     5   1.560
        58.497446       88.674760      323.737497     1     0     0     0     7   1.560
       344.209813      358.120227        8.265552     1     0     0     0     6   1.560
       383.552317      498.441216      171.538505     1     0     0     0     7   1.560
        38.579872       55.688326      232.002016     1     0     0     0     3   1.560
       217.479453      199.005143      252.750923     1     0     0     0     3   1.560
       360.557490      489.051442      184.594745     1     0     0     0     5   1.560
       351.091413      299.338234      372.057553     1     0     0     0     2   1.560
       276.273953      133.488745        2.783519     1     0     0     0     5   1.560
       429.445923      155.130198       33.901541     1     0     0     0     2   1.560
       444.335372      351.950810       49.131776     1     0     0     0     4   1.560
       160.323040      423.277942      361.820376     1     0     0     0     7   1.560
       219.913754      217.917452      403.458651     1     0     0     0     5   1.560
       337.485325      148.063628      301.280983     1     0     0     0     5   1.560
       144.003104       40.566667       35.336867     1     0     0     0     5   1.560
       240.420561      317.282535      133.353158     1     0     0     0     8   1.560
       495.308468      401.551444       50.167642     1     0     0     0     6   1.560
         2.271975      292.540194      455.313093     1     0     0     0     1   1.560
        39.056695      100.987928      215.283287     1     0     0     0     2   1.560
        27.468617      143.852534      472.512414     1     0     0     0     5   1.560
       130.410707      240.408828      233.794889     1     0     0     0     6   1.560
        42.831668      396.440215      368.649051     1     0     0     0     6   1.560
       224.850647      482.342084      484.523348     1     0     0     0     5   1.560
       162.135261      478.952515      226.616808     1     0     0     0     5   1.560
       385.112790      354.201305       91.717532     1     0     0     0     7   1.560
       338.543419      483.473101      319.403241     1     0     0     0     1   1.560
       417.568340      324.607271      438.523347     1     0     0     0     7   1.560
       194.496590       72.248157      109.201689     1     0     0     0     8   1.560
       433.045032      452.837172      470.455737     1     0     0     0     3   1.560
       264.866133      376.689533       96.445687     1     0     0     0     6   1.560
       351.227365      436.552037      493.636680     1     0     0     0     2   1.560
       388.020952      419.378002      132.380925     1     0     0     0     1   1.560
        38.221631      280.915977        2.355538     1     0     0     0     8   1.560
       293.504485      306.786041      393.952157     1     0     0     0     3   1.560
        68.838993      151.595279      446.760341     1     0     0     0     2   1.560
       341.014444      347.831649      301.530292     1     0     0     0     1   1.560
       180.765968      331.859514      410.203171     1     0     0     0     2   1.560
        45.576787      227.466852       78.412147     1     0     0     0     4   1.560
       485.302473      158.143847      283.981395     1     0     0     0     3   1.560
       324.240345      224.853560      316.323947     1     0     0     0     1   1.560
       225.647505       10.230135      360.927336     1     0     0     0     8   1.560
       195.971655      278.755347       33.296634     1     0     0     0     8   1.560
       404.834954      137.676373      222.531335     1     0     0     0     6   1.560
        15.981381       60.631875      346.332845     1     0     0     0     1   1.560
       191.279327       56.797544      246.057715     1     0     0     0     4   1.560
       463.581798      370.999179      393.453063     1     0     0     0     6   1.560
         9.002755       73.098240      245.941907     1     0     0     0     3   1.560
       388.651670      486.453841      199.991101     1     0     0     0     1   1.560
       423.384728       80.625771      295.399891     1     0     0     0     8   1.560
       363.316480      145.708511      360.377968     1     0     0     0     6   1.560
       171.545187      421.014003      463.644123     1     0     0     0     4   1.560
       235.333573       75.415072      423.982525     1     0     0     0     7   1.560
       201.637803      259.483565      172.737463     1     0     0     0     2   1.560
       151.948577      160.135127        1.398201     1     0     0     0     7   1.560
       356.682330      173.851552      482.148879     1     0     0     0     8   1.560
       301.649084        1.116716      106.871939     1     0     0     0     6   1.560
       488.556696      249.001008      387.188170     1     0     0     0     2   1.560
        50.620583      157.162898      203.013877     1     0     0     0     6   1.560
       283.623607      154.512111      100.066317     1     0     0     0     6   1.560
       274.982913      472.341005      346.528212     1     0     0     0     4   1.560
        85.978316      260.323113      486.174579     1     0     0     0     2   1.560
       124.979918      163.259685      232.923366     1     0     0     0     5   1.560
       163.024529      356.847509      374.419860     1     0     0     0     4   1.560
       126.125241      414.881714      194.286718     1     0     0     0     1   1.560
       419.960870      317.508243      323.081535     1     0     0     0     4   1.560
       340.983570      145.534745       21.345557     1     0     0     0     7   1.560
       257.282926      361.116690      216.290800     1     0     0     0     3   1.560
       192.317070       46.642720      355.839214     1     0     0     0     2   1.560
        88.060019      268.128534      417.443469     1     0     0     0     3   1.560
       287.833825      147.765553      274.022419     1     0     0     0     5   1.560
       405.715164      468.508851      194.769873     1     0     0     0     2   1.560
       165.838545      165.657302       32.929086     1     0     0     0     5   1.560
       487.468880      262.344369      152.589361     1     0     0     0     8   1.560
       133.065535      110.709328      130.155860     1     0     0     0     1   1.560
       245.844198      340.560297      308.648403     1     0     0     0     7   1.560
        71.925437       19.158162      278.315120     1     0     0     0     1   1.560
       298.201390      456.229243      470.282475     1     0     0     0     3   1.560
         3.763695       33.338034      431.003410     1     0     0     0     6   1.560
       288.260783      212.921811      247.118879     1     0     0     0     2   1.560
        26.059182      423.784620      226.537660     1     0     0     0     3   1.560
       474.635985      367.210947      418.357798     1     0     0     0     8   1.560
       175.287513      343.064896      205.199225     1     0     0     0     5   1.560
       112.097918      260.490050      455.934447     1     0     0     0     2   1.560
       320.883476      444.185503      206.145931     1     0     0     0     3   1.560
       160.683562      256.096833       70.244469     1     0     0     0     8   1.560
       428.582296      209.490465      118.734821     1     0     0     0     3   1.560
       455.296344      359.473499      198.861046     1     0     0     0     2   1.560
       330.389727      460.269862      162.417008     1     0     0     0     1   1.560
       434.519780      216.074304      370.184484     1     0     0     0     8   1.560
        58.779659      212.088007      173.663006     1     0     0     0     4   1.560
       344.516107      144.295897       91.493668     1     0     0     0     2   1.560
       110.439029       66.577760      245.003259     1     0     0     0     7   1.560
       461.728732      168.276311       72.026640     1     0     0     0     5   1.560
        92.718398      131.396379       15.366222     1     0     0     0     8   1.560
        12.521763      221.803683      290.682228     1     0     0     0     7   1.560
        93.722816      395.325899      281.921439     1     0     0     0     7   1.560
        62.344809      247.874903       69.719750     1     0     0     0     6   1.560
        73.634646      361.617829      493.376740     1     0     0     0     6   1.560
       322.113346       97.379783      268.071406     1     0     0     0     7   1.560
        48.449862      363.616554      498.254552     1     0     0     0     7   1.560
        29.962254        2.889080        1.259084     1     0     0     0     3   1.560
        12.746142       54.818874      227.516213     1     0     0     0     5   1.560
        40.431632      316.201833       84.113157     1     0     0     0     5   1.560
       288.164695      328.689475       46.053376     1     0     0     0     3   1.560
       198.732108      467.705189      220.175733     1     0     0     0     6   1.560
       361.187048      432.309935      493.967591     1     0     0     0     5   1.560