ITEM: TIMESTEP
0
ITEM: NUMBER OF ATOMS
        7873
ITEM: BOX BOUNDS pp pp pp
  0.0000000E+00   500.000000000000     
  0.0000000E+00   500.000000000000     
  0.0000000E+00   500.000000000000     
ITEM: ATOMS x y z nV nH f3 f4 orient
       356.568219      278.029529      294.023541     1     0     0     0     1
       125.589775      495.002927      177.493841     1     0     0     0     3
       235.633251      119.502176      416.144168     1     0     0     0     1
       241.334544      207.477008      163.755664     1     0     0     0     8
        13.298851       43.756987       61.916466     1     0     0     0     2
       239.303430       81.752412      382.259153     1     0     0     0     4
       477.884477      204.091010       10.631601     1     0     0     0     6
        92.293179      465.580601       13.473703     1     0     0     0     2
       348.614604      101.610940      434.447098     1     0     0     0     8
       483.231920      310.600059      375.971161     1     0     0     0     3
       447.643533      118.042904      499.710430     1     0     0     0     3
       326.707540      133.148692      202.675237     1     0     0     0     8
       233.093690       59.360480      380.587147     1     0     0     0     4
       435.315851      290.655128      101.543238     1     0     0     0     7
       240.137379      466.928200       78.539139     1     0     0     0     3
       398.588498      329.977058      245.820476     1     0     0     0     3
       361.674327        4.131228      426.036778     1     0     0     0     5
       416.538956      156.828769      166.767836     1     0     0     0     7
       293.717761      343.576238      342.733739     1     0     0     0     4
        95.982897       58.587409      455.732224     1     0     0     0     1
       332.587284      494.965584      393.987729     1     0     0     0     1
       157.324286      464.870694      494.193687     1     0     0     0     5
       420.846460      138.879966      210.323924     1     0     0     0     7
        87.735363      204.410757      164.566230     1     0     0     0     2
       288.360386      463.131139      313.408525     1     0     0     0     2
       234.370599      448.196611      460.696032     1     0     0     0     1
       209.734720      184.707270      321.547702     1     0     0     0     5
       299.797830      183.317172      104.663499     1     0     0     0     5
         6.944793       98.749319      194.105453     1     0     0     0     2
       343.160421        7.975767      436.437189     1     0     0     0     7
       457.969157      388.922424      415.505307     1     0     0     0     7
        18.868615      484.986600      338.145956     1     0     0     0     8
       186.391765      333.220833      244.723371     1     0     0     0     2
        89.164380      383.753468      260.282838     1     0     0     0     2
       469.339038      226.341031      292.455168     1     0     0     0     6
       326.681946      455.246415       99.405443     1     0     0     0     5
       406.793714      401.959453      486.360070     1     0     0     0     4
       378.199811      144.034929      177.571248     1     0     0     0     7
       176.633627      296.243656      385.057130     1     0     0     0     3
       146.891374      335.777887      144.608731     1     0     0     0     6
       125.307740      218.678559       19.205158     1     0     0     0     4
        17.455803      145.605997       21.056988     1     0     0     0     4
       148.784198      355.406929      316.277441     1     0     0     0     7
       266.781452       81.634803      254.471089     1     0     0     0     1
        69.472973       29.216595      495.152447     1     0     0     0     4
        99.400690      429.233699      105.907528     1     0     0     0     4
       194.550829      488.166876       36.688012     1     0     0     0     3
       445.664369      304.237363       89.147707     1     0     0     0     3
       486.514978      313.587321      236.269441     1     0     0     0     3
       114.221978       61.382262      182.168010     1     0     0     0     6
       305.792364      357.045026       57.094208     1     0     0     0     3
        57.629970      111.190187       17.219076     1     0     0     0     8
        57.194892      226.647116      128.701083     1     0     0     0     6
       393.476095      498.370648      166.480864     1     0     0     0     1
       173.743954      282.335397      136.703014     1     0     0     0     5
       262.394897       57.723480      142.541011     1     0     0     0     6
       239.244337      207.480885       86.807333     1     0     0     0     5
        42.432079      157.191986      164.171161     1     0     0     0     7
       185.175333      219.533330      115.331484     1     0     0     0     8
        62.795070        8.496118      355.166644     1     0     0     0     3
       333.792696       55.890809       78.866512     1     0     0     0     5
       236.536489      261.838458      114.427992     1     0     0     0     7
       331.802651      178.158419      327.518562     1     0     0     0     6
       359.749851      487.316427      432.778191     1     0     0     0     7
        34.950644      213.430335      283.511338     1     0     0     0     7
       160.868798      249.664225       27.360324     1     0     0     0     7
       313.881124      412.228137      411.286021     1     0     0     0     8
       230.090487      369.400434      395.964140     1     0     0     0     8
       420.822012      346.866861      201.944574     1     0     0     0     1
        45.233085       24.804414      267.386448     1     0     0     0     2
       449.225370       76.530656      177.284384     1     0     0     0     6
       203.692129      110.466406      283.475470     1     0     0     0     7
        14.629259      437.717491      149.952056     1     0     0     0     2
       295.339370       14.516482      303.474895     1     0     0     0     2
       262.105373      324.906760       50.090621     1     0     0     0     8
       491.382131       48.863111      381.508035     1     0     0     0     5
       116.727327      207.495717      221.157922     1     0     0     0     7
       242.027498      480.532095       12.584200     1     0     0     0     2
        89.611449      131.069089      303.741837     1     0     0     0     6
       269.758737        6.571178      390.627228     1     0     0     0     1
       403.530475      439.068519      464.049927     1     0     0     0     3
        31.904718      227.819493      120.989307     1     0     0     0     6
        39.957093      168.551717      167.444281     1     0     0     0     2
       374.368641      174.498456      442.684121     1     0     0     0     4
        22.986864      400.112891      138.276299     1     0     0     0     7
       329.464621      105.439466      499.057049     1     0     0     0     8
       223.727455      217.270401        2.098440     1     0     0     0     4
        49.393383      340.957262      415.956700     1     0     0     0     2
        71.924817      428.126475      480.688656     1     0     0     0     4
       120.041567      239.678111      420.625111     1     0     0     0     4
        86.113791      295.611031      217.204337     1     0     0     0     4
       299.504046      177.480670      197.011222     1     0     0     0     4
       147.676280      116.161969      356.034800     1     0     0     0     7
        98.736462      480.607729      233.323209     1     0     0     0     1
       432.557259      279.426204      480.066952     1     0     0     0     5
       359.408184      272.194337      132.855989     1     0     0     0     1
       370.688284      267.322593      374.871395     1     0     0     0     2
       104.184052       96.497277       33.002374     1     0     0     0     2
       295.046202      497.602107      168.797961     1     0     0     0     5
       428.917505      417.409196      264.166940     1     0     0     0     6
        89.549214      399.615652      183.174232     1     0     0     0     2
       371.708588      339.318460      344.711752     1     0     0     0     7
       335.687783      286.771121      476.592664     1     0     0     0     3
       412.603780       69.360861      171.902265     1     0     0     0     7
        40.527381      112.160726       22.806496     1     0     0     0     1
       113.422224       29.906042      497.488495     1     0     0     0     5
       185.160607      495.019249      383.296984     1     0     0     0     8
       450.602149      222.700710      221.787037     1     0     0     0     8
        66.349076      333.467433      467.419883     1     0     0     0     5
        26.620462      247.499437       82.002231     1     0     0     0     4
       381.531051      442.360807      431.493780     1     0     0     0     1
       426.965960       22.751851      431.749922     1     0     0     0     1
       158.608899      221.418586      271.141998     1     0     0     0     6
       435.490595      214.488921      322.590043     1     0     0     0     6
       382.942807      126.351225      101.824199     1     0     0     0     6
       248.978180      265.177425      420.306001     1     0     0     0     5
        62.708071      135.089972       10.307768     1     0     0     0     7
       130.287400       15.998970      414.135582     1     0     0     0     2
        91.326738      387.732188      274.770985     1     0     0     0     2
       275.877691      239.163581       58.921724     1     0     0     0     4
        21.875117      110.087254      281.305815     1     0     0     0     7
         1.737121      428.127266      369.845591     1     0     0     0     2
       207.841581      248.013854      448.335218     1     0     0     0     1
       298.134337      313.010246      321.488249     1     0     0     0     2
       311.943153      100.847748      258.740532     1     0     0     0     2
       337.998491      414.231524      217.428391     1     0     0     0     4
       322.852726       39.797776      288.072378     1     0     0     0     2
        93.102912      254.777210        2.840808     1     0     0     0     6
       232.450095      474.879225      214.957150     1     0     0     0     6
        97.746884       82.086814      178.287823     1     0     0     0     7
       258.972817        3.097100      309.392720     1     0     0     0     4
       325.917355      230.573328      394.374875     1     0     0     0     1
       314.641402      179.645081      242.211544     1     0     0     0     4
        88.885776      400.829905      259.022872     1     0     0     0     2
       318.195820       28.092624       15.202136     1     0     0     0     2
       217.761539      264.138179      485.336193     1     0     0     0     1
       469.570836       36.216527      244.020331     1     0     0     0     7
       453.101117      122.838597      129.368209     1     0     0     0     1
       307.084288      216.835245       72.917146     1     0     0     0     6
       181.425551      266.892554      221.243231     1     0     0     0     1
       480.799496      139.860104      340.577621     1     0     0     0     1
       399.373773      417.156477      305.926526     1     0     0     0     5
       160.890180       69.751172      168.979584     1     0     0     0     7
       429.521721      122.551591      230.377178     1     0     0     0     2
       450.313951       89.536278      254.334558     1     0     0     0     4
       261.174371       53.043051      439.341482     1     0     0     0     4
       321.219297      232.410532       87.951585     1     0     0     0     8
        52.135925      457.060407      422.230761     1     0     0     0     4
       272.938981      236.262114       95.024134     1     0     0     0     5
       400.466363      259.693918      145.645576     1     0     0     0     7
       174.575894      123.351575      188.965482     1     0     0     0     8
       365.345360      372.984588      343.991640     1     0     0     0     6
       397.309233      302.437544      498.864357     1     0     0     0     7
       387.232049      393.367345      212.475927     1     0     0     0     6
        75.828706      236.615558      253.511285     1     0     0     0     8
       327.024199      240.755288      300.584026     1     0     0     0     3
        26.443904      440.314386      427.442670     1     0     0     0     7
       168.265179      245.767560      258.997136     1     0     0     0     4
        25.808559      414.176963      425.581880     1     0     0     0     2
       267.525781      481.416376      427.150284     1     0     0     0     3
       494.055017      153.691741       52.040411     1     0     0     0     5
       283.096444      129.750235      338.630770     1     0     0     0     6
         1.199531      288.638655      495.938862     1     0     0     0     4
       195.841140      267.691671       68.122351     1     0     0     0     3
       290.885890      260.108712      125.585004     1     0     0     0     6
       302.105422      380.822070      480.145389     1     0     0     0     8
        12.277650      193.729700       79.795562     1     0     0     0     2
       204.210470      332.503629      269.548721     1     0     0     0     2
       132.776860      233.787189      175.690974     1     0     0     0     3
       101.885445      222.657295       88.872336     1     0     0     0     1
       124.740527      291.965391      322.920944     1     0     0     0     8
         7.937023      466.715796      184.726124     1     0     0     0     7
       169.880524      167.524237      424.014628     1     0     0     0     2
       147.992777      186.531586       36.378444     1     0     0     0     7
        83.833755       54.059583      324.972675     1     0     0     0     4
       329.384354      370.171600      232.507601     1     0     0     0     3
       418.399381       58.141790       94.988852     1     0     0     0     5
       487.726340      357.469877      327.789077     1     0     0     0     2
        35.841227      137.671262      475.801655     1     0     0     0     2
       244.905291      230.419570      229.658979     1     0     0     0     7
       135.379108      432.828166      302.624192     1     0     0     0     1
       441.472717      372.752452       87.431982     1     0     0     0     8
       304.121838      339.992274      237.885579     1     0     0     0     7
       320.651110      193.718585      300.291061     1     0     0     0     6
       276.241370      376.271559        2.762615     1     0     0     0     6
         8.071261      317.211756      435.601920     1     0     0     0     6
        17.069805       98.271401      439.506193     1     0     0     0     3
       387.785969       43.201877       90.176364     1     0     0     0     5
        53.256287      260.331419      312.938464     1     0     0     0     2
       128.950211      492.269077      447.503953     1     0     0     0     3
       478.455955      452.597486       82.969727     1     0     0     0     4
       232.497069       40.572415       62.878674     1     0     0     0     4
       463.604202       15.608092      252.476562     1     0     0     0     7
       297.239441      302.074426      470.014814     1     0     0     0     5
        74.281606        4.898324      433.672919     1     0     0     0     2
       137.937339      376.946743       93.153097     1     0     0     0     7
       373.198756       23.739270      168.365190     1     0     0     0     7
        59.210013      256.697232      394.395659     1     0     0     0     3
        85.381149       11.605706      119.858704     1     0     0     0     1
         6.043578      117.836985      358.197211     1     0     0     0     5
       170.793291      207.142827       78.980503     1     0     0     0     2
       460.421295      444.811547       95.025260     1     0     0     0     3
        73.981386       50.716656      148.383385     1     0     0     0     2
       307.128856      457.772062      293.654502     1     0     0     0     2
       252.372038      362.885720      276.563788     1     0     0     0     3
       433.680422       78.738703      372.044073     1     0     0     0     1
       332.370051      412.854900      231.198470     1     0     0     0     8
       343.124932      296.077440      326.992414     1     0     0     0     8
       405.880952      381.201273      432.434423     1     0     0     0     4
       413.651665      128.929931       51.144932     1     0     0     0     6
       381.267446      488.975860       58.788727     1     0     0     0     1
       478.120294      168.392519      166.601330     1     0     0     0     7
       234.651992      456.721709      185.525007     1     0     0     0     1
       153.996159      341.192014      368.744431     1     0     0     0     2
       498.955129      236.604556      333.073816     1     0     0     0     1
         1.163066      345.930233      263.451836     1     0     0     0     2
         3.489613      480.749598      263.984385     1     0     0     0     5
       429.064446      333.127143      450.350199     1     0     0     0     6
       308.368952       60.015598      410.644326     1     0     0     0     1
       166.444537      148.618861       45.120667     1     0     0     0     2
       364.987689      352.353621       86.745711     1     0     0     0     3
        89.513577      423.080527        4.903946     1     0     0     0     4
       205.138533      203.019821       96.141347     1     0     0     0     8
        37.523724      331.923546      387.331843     1     0     0     0     6
        70.373922       40.144880      463.024045     1     0     0     0     4
       483.307805      295.335699      478.854221     1     0     0     0     8
       109.568551       41.183986       19.486627     1     0     0     0     2
       140.687717      387.595193      150.760544     1     0     0     0     6
       401.974817      158.470033      422.763353     1     0     0     0     7
       443.344823      400.279574      393.944548     1     0     0     0     3
       193.124885      237.762979      132.458521     1     0     0     0     6
       478.419816      147.245342        0.907567     1     0     0     0     4
       301.952072      144.162302      156.466561     1     0     0     0     7
        94.494225      381.664364      234.186975     1     0     0     0     5
       449.049531      314.851646      424.155857     1     0     0     0     5
       454.789171       87.724564      269.110520     1     0     0     0     3
       439.075791      337.997615      168.602922     1     0     0     0     4
       241.205965      401.811514      493.048408     1     0     0     0     5
       326.401784       49.452592      460.408778     1     0     0     0     8
       433.697779      246.263531      326.561047     1     0     0     0     5
       118.328204      155.840688       11.995618     1     0     0     0     8
         5.147952      200.091928      259.784075     1     0     0     0     2
       474.724891      450.399241      428.263067     1     0     0     0     3
       322.007799      484.573016      385.498413     1     0     0     0     1
         0.846936      390.251677      443.624156     1     0     0     0     6
        32.007141      201.659445       68.836949     1     0     0     0     3
       218.581019      494.470506      188.857891     1     0     0     0     7
       208.870081      334.739157      323.172414     1     0     0     0     7
       269.839779      467.931056      366.522302     1     0     0     0     2
       372.722964      321.917233       33.272220     1     0     0     0     3
       221.219055      131.190035      244.987472     1     0     0     0     8
         7.662396      250.580099       41.170863     1     0     0     0     5
       228.310301      276.370376      201.057085     1     0     0     0     3
        31.892006      170.271548      252.642324     1     0     0     0     2
        64.646493      306.328575      119.595855     1     0     0     0     5
       445.333860      286.814153      152.525875     1     0     0     0     2
       324.983999      346.024868      475.253504     1     0     0     0     3
        16.272105      201.735755       23.767304     1     0     0     0     7
       166.441377      344.202726      411.677937     1     0     0     0     6
        22.671879      435.398291      267.847747     1     0     0     0     8
       432.417559      284.869368      451.529296     1     0     0     0     7
       162.469103      348.126857      188.407548     1     0     0     0     3
       142.108148      286.367979      371.804963     1     0     0     0     5
       380.509392      339.995562      440.770177     1     0     0     0     1
       175.959646       78.722008      286.854363     1     0     0     0     3
       271.783423      124.655175      221.069690     1     0     0     0     7
        79.165701      199.185384        1.115168     1     0     0     0     5
       414.602000       41.575224      309.901079     1     0     0     0     5
        36.796450      135.210431      483.414617     1     0     0     0     7
       185.970289      307.037356      478.035439     1     0     0     0     8
       149.538990       33.506814      399.584268     1     0     0     0     6
        62.061138      282.063050      184.732080     1     0     0     0     1
       471.876852      231.737059      262.939473     1     0     0     0     3
       125.073138      259.279159      370.538367     1     0     0     0     1
       499.884394      368.934635        8.936893     1     0     0     0     2
       113.218510      259.262700      488.227182     1     0     0     0     4
       260.138036      358.781511       33.108410     1     0     0     0     2
        77.817259      196.774233       34.108967     1     0     0     0     2
       210.023820      288.957518      358.028644     1     0     0     0     4
        91.065856      418.303478      426.679788     1     0     0     0     2
       156.468628      324.368732      426.057992     1     0     0     0     4
       112.041320      402.516108      248.520293     1     0     0     0     6
        15.242254      306.694941      112.766889     1     0     0     0     5
       236.384661      338.464407      420.108790     1     0     0     0     7
       297.933718      167.750660      229.468367     1     0     0     0     5
        38.440965       51.545893      104.552197     1     0     0     0     7
         8.922631      324.547122      418.624276     1     0     0     0     2
       334.916552      379.218542      290.083947     1     0     0     0     4
       287.111434      254.615174      120.663601     1     0     0     0     3
        32.244686       22.499035      168.179212     1     0     0     0     8
         8.231770       25.620747       85.579028     1     0     0     0     6
       305.393268      432.569289       47.497562     1     0     0     0     6
       311.018351       40.838990        0.082547     1     0     0     0     5
       229.381087      473.098740      120.429233     1     0     0     0     2
       476.556397      334.540724      306.471074     1     0     0     0     7
       100.165030      280.276947      216.090409     1     0     0     0     8
        48.744040      438.947524      221.166916     1     0     0     0     7
       334.233111       85.650365      229.420772     1     0     0     0     2
       231.407469       21.562086      117.413478     1     0     0     0     2
       252.056347      431.035644      262.785020     1     0     0     0     2
        55.960180       50.460605        9.222375     1     0     0     0     4
       315.022559       24.099170       24.831430     1     0     0     0     6
       187.889198      318.564432      338.613374     1     0     0     0     7
       329.773409      179.189128      377.983419     1     0     0     0     3
        44.082812      103.799348      245.767016     1     0     0     0     1
       183.402436      201.819832      352.433997     1     0     0     0     3
       211.843956      324.810430      170.362615     1     0     0     0     8
       290.452988      494.827030       73.659945     1     0     0     0     6
        60.306222      426.455430       82.737120     1     0     0     0     2
       226.520080      391.021189       10.661477     1     0     0     0     5
       373.964397      368.471990        7.972859     1     0     0     0     2
       486.003991      282.049440      472.335135     1     0     0     0     1
       270.667464      426.010755      442.922777     1     0     0     0     1
       499.759452       42.218078       70.420162     1     0     0     0     7
       361.118939      470.829154      371.224619     1     0     0     0     4
        25.071646      153.640576      171.523980     1     0     0     0     6
       399.084507      282.313348      452.210652     1     0     0     0     1
       198.753166      401.890129      154.947482     1     0     0     0     3
       150.648054      178.516196      349.822984     1     0     0     0     6
       448.628271       65.349649      435.530899     1     0     0     0     1
        57.944862      251.507249      370.321335     1     0     0     0     1
        43.663467      485.466427       16.962876     1     0     0     0     2
        84.135359      477.120237      358.330660     1     0     0     0     4
       150.935784      236.859010      452.836526     1     0     0     0     8
       199.523965       36.120074      216.553709     1     0     0     0     3
       353.811892      479.580394       78.333497     1     0     0     0     8
       488.274288      297.137032      477.052888     1     0     0     0     8
       475.128367      477.341410      313.120875     1     0     0     0     5
       317.110661      338.928777      410.109923     1     0     0     0     7
       154.292696       18.717526      294.224039     1     0     0     0     3
       192.160640      204.137433      335.021425     1     0     0     0     7
       405.331695      268.509416      387.329513     1     0     0     0     8
       286.168318      402.948448      325.631108     1     0     0     0     6
       426.740723       64.193776       37.873873     1     0     0     0     6
       327.738105       56.011870      419.391025     1     0     0     0     3
       297.620295      294.831457      344.445653     1     0     0     0     5
       296.408491       52.531843      382.344566     1     0     0     0     5
       253.592214      496.812938       75.772316     1     0     0     0     5
       329.421404      458.513968       23.845558     1     0     0     0     1
       219.361086      471.318800        8.549997     1     0     0     0     3
       326.186248       34.027407       45.638615     1     0     0     0     2
        66.946286      270.017361      296.275674     1     0     0     0     4
       381.317725      420.578172      143.792461     1     0     0     0     5
       434.746900      305.361849      215.223173     1     0     0     0     1
       380.582830      423.975164      268.555706     1     0     0     0     2
       180.223568      319.453842        0.316864     1     0     0     0     8
       478.421105       17.272677      464.234392     1     0     0     0     4
       321.527415      450.313467      403.528645     1     0     0     0     1
       282.587211      360.288535      190.449122     1     0     0     0     1
       144.768580      147.594796      284.012858     1     0     0     0     7
       109.471015      115.871181      481.774694     1     0     0     0     8
       152.400060       58.245583      271.826237     1     0     0     0     6
       293.697400      344.328883      396.085530     1     0     0     0     8
       323.806620      493.258564      433.849064     1     0     0     0     7
       169.203644      167.801436      212.781561     1     0     0     0     1
        87.121356       80.729545      492.315057     1     0     0     0     3
       418.224717       86.225333       45.154630     1     0     0     0     1
       116.914207      194.687539       25.534132     1     0     0     0     4
       173.992956       78.998109      222.228917     1     0     0     0     5
       126.140635      165.010466      268.179418     1     0     0     0     2
       399.928509      132.607809      496.641858     1     0     0     0     1
       379.703235      480.444637       44.623557     1     0     0     0     4
        92.712701      411.580530      233.950329     1     0     0     0     6
       124.799103      150.707724      408.911680     1     0     0     0     4
       130.277813      335.809578      136.706684     1     0     0     0     5
       378.367545      334.448377      414.220308     1     0     0     0     4
       131.532613      196.592455       26.409300     1     0     0     0     6
       297.469534      370.280328      479.525099     1     0     0     0     1
        62.846309       66.646110      412.108943     1     0     0     0     2
       263.592283      270.915840      287.389886     1     0     0     0     7
       414.953681      231.777006       53.712789     1     0     0     0     4
       150.305122      153.538836      395.408438     1     0     0     0     8