ITEM: TIMESTEP
0
ITEM: NUMBER OF ATOMS
        7874
ITEM: BOX BOUNDS pp pp pp
  0.0000000E+00   500.000000000000     
  0.0000000E+00   500.000000000000     
  0.0000000E+00   500.000000000000     
ITEM: ATOMS x y z f1 f2 f3 f4 orient radius
       277.171970       12.342657      147.087402     1     0     0     0     4   1.560
        25.032727      155.059646      339.229613     1     0     0     0     3   1.560
       218.639254      236.551869      144.456306     1     0     0     0     2   1.560
       138.819637      325.827743      131.936922     1     0     0     0     8   1.560
       470.095806      469.638974      409.707784     1     0     0     0     8   1.560
       469.730253      448.037402      340.413692     1     0     0     0     3   1.560
       460.642262       13.447592      260.783048     1     0     0     0     7   1.560
       395.450915      175.354328       35.937539     1     0     0     0     1   1.560
       280.919534      180.217023      330.459921     1     0     0     0     6   1.560
       381.650628      166.701762      243.816765     1     0     0     0     6   1.560
       481.588095      110.864296      209.323752     1     0     0     0     4   1.560
         2.568451      453.290019      250.028135     1     0     0     0     2   1.560
       270.303087      101.099719      382.112006     1     0     0     0     3   1.560
       290.878314      476.259119      167.560326     1     0     0     0     6   1.560
       241.248209      235.373408      354.171735     1     0     0     0     7   1.560
       388.862524       35.620505      329.825337     1     0     0     0     3   1.560
       222.535480      474.649987      431.337722     1     0     0     0     2   1.560
       445.719582      224.207101        0.097137     1     0     0     0     7   1.560
       422.805787       17.415443      107.828776     1     0     0     0     6   1.560
       105.402176       98.338596      410.523230     1     0     0     0     4   1.560
       191.637639      380.550180       77.346237     1     0     0     0     8   1.560
       468.653192       28.108157      375.757608     1     0     0     0     4   1.560
       211.798042      306.535817      182.040403     1     0     0     0     1   1.560
       409.095429      220.398773       23.539687     1     0     0     0     3   1.560
       202.932923      125.699110      493.780751     1     0     0     0     1   1.560
       273.582475      453.059503      256.384890     1     0     0     0     3   1.560
       412.038955      252.849093      212.700564     1     0     0     0     6   1.560
       114.740560      367.660404       39.687843     1     0     0     0     1   1.560
       453.366842       10.386123      126.727469     1     0     0     0     4   1.560
       258.886442       19.425653       19.762539     1     0     0     0     8   1.560
       348.500693      382.578558      211.826735     1     0     0     0     4   1.560
       346.710694       50.598371      234.661946     1     0     0     0     2   1.560
       354.847175      108.621802      341.752272     1     0     0     0     2   1.560
       204.861837       75.507583      176.171283     1     0     0     0     6   1.560
       426.063409      355.865793      192.557151     1     0     0     0     4   1.560
       497.627050      270.527029      146.158782     1     0     0     0     3   1.560
       102.730559      143.052150      486.928318     1     0     0     0     7   1.560
       144.405125      121.782023      165.825317     1     0     0     0     8   1.560
        82.427765      408.400126      181.894801     1     0     0     0     5   1.560
       243.370193       25.211749      151.079180     1     0     0     0     2   1.560
         1.965039      425.645037      183.000084     1     0     0     0     6   1.560
        78.780379      170.096024      386.871476     1     0     0     0     8   1.560
       215.532571      127.262675      182.469577     1     0     0     0     7   1.560
       240.947021       31.991761      352.113120     1     0     0     0     1   1.560
       374.327582      129.307247      317.824356     1     0     0     0     5   1.560
       494.244490      224.184762      131.551962     1     0     0     0     8   1.560
       195.442586        8.529568      317.842816     1     0     0     0     1   1.560
       349.752949       81.380517      168.601575     1     0     0     0     1   1.560
         9.304543      300.307338      473.169520     1     0     0     0     7   1.560
        47.409671      352.475310       17.903164     1     0     0     0     1   1.560
       487.686562       60.735106      385.890965     1     0     0     0     8   1.560
       428.323768      160.783846       75.032226     1     0     0     0     2   1.560
       430.072629      242.541432       31.524658     1     0     0     0     2   1.560
        59.163593       96.980296      252.655558     1     0     0     0     6   1.560
       287.450824      118.578832      422.340334     1     0     0     0     6   1.560
       280.449964      409.760561      117.318678     1     0     0     0     5   1.560
       185.395930       68.409502      454.159095     1     0     0     0     1   1.560
       417.222361      176.766009      182.177020     1     0     0     0     5   1.560
       366.712412        9.753463      250.409228     1     0     0     0     4   1.560
       491.499853      261.790023      421.912345     1     0     0     0     1   1.560
       104.632848      185.961477       89.922604     1     0     0     0     5   1.560
       342.883821      405.711988      318.439661     1     0     0     0     3   1.560
        15.039109      445.603352      313.588945     1     0     0     0     4   1.560
       242.543400      338.593900      183.384094     1     0     0     0     6   1.560
       323.830827      413.330140      117.447052     1     0     0     0     8   1.560
       200.290610       61.892718       35.215505     1     0     0     0     1   1.560
        67.241462      128.022657      207.313894     1     0     0     0     3   1.560
       394.847245      163.909695      343.204217     1     0     0     0     4   1.560
        18.430853      224.031943       43.856304     1     0     0     0     3   1.560
        25.974301      280.896202      314.722303     1     0     0     0     8   1.560
        32.843582      364.838883      305.502637     1     0     0     0     1   1.560
       289.975240      395.299855      400.122548     1     0     0     0     8   1.560
        63.328005      156.645058      493.199509     1     0     0     0     8   1.560
        41.520387      121.904561      461.956275     1     0     0     0     2   1.560
       139.464659       63.464567       90.622593     1     0     0     0     3   1.560
       123.672871      438.722628        1.715616     1     0     0     0     4   1.560
       392.993631      303.741245      382.692029     1     0     0     0     7   1.560
       318.792953       68.864832      228.582626     1     0     0     0     3   1.560
       195.126940       37.450760      135.166495     1     0     0     0     6   1.560
       300.209446      467.676406      235.645498     1     0     0     0     1   1.560
       496.407486       44.941440      136.405720     1     0     0     0     8   1.560
       250.062719      383.360720      162.352759     1     0     0     0     5   1.560
       164.412122      198.880357      341.473487     1     0     0     0     2   1.560
       373.327556      242.263501      127.505554     1     0     0     0     7   1.560
       105.220693       17.820177      429.170900     1     0     0     0     5   1.560
       467.891483      310.409152       89.549216     1     0     0     0     6   1.560
       174.318437      231.934975      178.347674     1     0     0     0     8   1.560
        13.896829      180.828563      452.552686     1     0     0     0     1   1.560
       147.879778      137.618694      107.677707     1     0     0     0     8   1.560
       401.866464       96.705870      253.172923     1     0     0     0     3   1.560
        76.741466      475.141531      452.153900     1     0     0     0     7   1.560
       280.425214      303.808964      329.908411     1     0     0     0     6   1.560
       437.145387      114.600702      226.900556     1     0     0     0     8   1.560
       318.484763      142.727552       20.983772     1     0     0     0     7   1.560
       411.193398       33.155079      299.327771     1     0     0     0     6   1.560
       257.273485      240.915944      423.210623     1     0     0     0     8   1.560
       223.603636      373.232706      303.577524     1     0     0     0     2   1.560
       123.891463      365.560848      365.742670     1     0     0     0     6   1.560
        21.819928      297.162193      260.424177     1     0     0     0     1   1.560
       132.122223      251.807474      445.241773     1     0     0     0     6   1.560
       315.613730      452.674770      339.792061     1     0     0     0     5   1.560
       357.081082      496.939927      108.853706     1     0     0     0     6   1.560
       472.446831       49.064357      476.398033     1     0     0     0     6   1.560
       348.127645      384.290346      336.912339     1     0     0     0     5   1.560
       469.172575      435.032720      356.275460     1     0     0     0     6   1.560
       411.667566      358.775517      495.036793     1     0     0     0     6   1.560
       441.456326      496.060818      260.369026     1     0     0     0     7   1.560
       126.109897       59.438063      496.851535     1     0     0     0     1   1.560
       376.497746      486.536378      245.904382     1     0     0     0     3   1.560
        21.459825      233.651526      150.782186     1     0     0     0     5   1.560
       168.353082       11.954575      472.923949     1     0     0     0     8   1.560
       245.450887      395.325833      496.220017     1     0     0     0     3   1.560
       316.073791      189.971542      420.241185     1     0     0     0     6   1.560
       279.740745      297.153234      275.113449     1     0     0     0     1   1.560
       251.441221      285.041999      105.681343     1     0     0     0     2   1.560
        54.980617      363.404871      158.145008     1     0     0     0     2   1.560
       282.693252      200.142380      363.608206     1     0     0     0     2   1.560
       138.255782      325.962076      233.806286     1     0     0     0     3   1.560
       163.595806      397.081256      423.919886     1     0     0     0     4   1.560
       468.624393      474.349550      163.399583     1     0     0     0     5   1.560
       122.444723      411.241392      378.609518     1     0     0     0     8   1.560
       265.637143      436.539374      281.941399     1     0     0     0     6   1.560
        31.534135      281.117687      266.973234     1     0     0     0     1   1.560
       129.344588      232.939204      254.181657     1     0     0     0     4   1.560
       477.984796      210.822234      466.685277     1     0     0     0     7   1.560
       126.127233      232.348805       33.140488     1     0     0     0     2   1.560
       337.809092      153.382046       46.900697     1     0     0     0     2   1.560
       378.292386      112.731371      498.525970     1     0     0     0     4   1.560
       453.558364      429.125319      281.138475     1     0     0     0     3   1.560
       167.438626      469.478840       27.399625     1     0     0     0     6   1.560
       258.709731       52.010337      368.529477     1     0     0     0     5   1.560
       130.623872      331.314106      415.164932     1     0     0     0     6   1.560
       241.414391      183.900450      185.294336     1     0     0     0     1   1.560
       409.544912      404.979820      288.139583     1     0     0     0     5   1.560
       325.717550      124.536354      438.213191     1     0     0     0     3   1.560
       155.823555       68.040576      138.662368     1     0     0     0     3   1.560
        76.471286      357.036367      156.169409     1     0     0     0     1   1.560
       414.160835      105.628760       50.736813     1     0     0     0     6   1.560
       144.027052      209.055887      413.039033     1     0     0     0     8   1.560
       113.616918      208.326063      478.592332     1     0     0     0     4   1.560
       407.328545      166.708278      178.901105     1     0     0     0     7   1.560
       469.968570      469.892916      272.544960     1     0     0     0     2   1.560
       154.127483       53.882162      488.119250     1     0     0     0     3   1.560
       420.304819      381.531303      462.218505     1     0     0     0     1   1.560
        79.913658      241.713557      215.693528     1     0     0     0     7   1.560
       211.227870        2.767016      193.914342     1     0     0     0     6   1.560
        60.770609      357.873630      278.723052     1     0     0     0     6   1.560
       241.397482      170.814781      164.333878     1     0     0     0     4   1.560
       468.242005      480.215458      282.037858     1     0     0     0     7   1.560
       327.586961      339.514228      298.011151     1     0     0     0     7   1.560
       314.507655       84.514668      412.758190     1     0     0     0     3   1.560
       420.631960      212.839272      420.397795     1     0     0     0     2   1.560
       229.680722      182.348648       51.491413     1     0     0     0     3   1.560
       343.435866      272.602142      232.702126     1     0     0     0     3   1.560
       109.900548      348.343064      175.656370     1     0     0     0     1   1.560
       239.241954       21.049144      287.577367     1     0     0     0     6   1.560
        64.418359      275.692811      409.789213     1     0     0     0     5   1.560
       295.204309      367.990651      234.005453     1     0     0     0     6   1.560
        88.804609      162.299738      444.156081     1     0     0     0     1   1.560
        43.455935      476.962507      462.617900     1     0     0     0     5   1.560
       178.859325      115.505585      414.245766     1     0     0     0     2   1.560
       192.307797      416.058378      141.135720     1     0     0     0     3   1.560
       141.785942      411.720631       30.158063     1     0     0     0     6   1.560
       227.402580      442.715435       45.187935     1     0     0     0     5   1.560
        11.740579      465.371532      132.184370     1     0     0     0     2   1.560
        85.671912      168.102453      448.001274     1     0     0     0     5   1.560
       459.027062      292.245316      256.956542     1     0     0     0     5   1.560
       241.238723      349.467787      411.540125     1     0     0     0     2   1.560
       245.753193       32.508709      139.476279     1     0     0     0     5   1.560
        67.873817      378.698536       76.465439     1     0     0     0     2   1.560
       304.928106       27.575871      477.516970     1     0     0     0     8   1.560
       362.043089      215.008879      496.571723     1     0     0     0     4   1.560
       283.176051       82.757924      199.754907     1     0     0     0     5   1.560
        19.787422      367.544247      405.004581     1     0     0     0     4   1.560
       464.072469        5.204177      176.813330     1     0     0     0     7   1.560
       233.882146      223.541684      404.391838     1     0     0     0     4   1.560
       185.531330       18.601127      102.064500     1     0     0     0     4   1.560
       147.116608      421.613581      383.905248     1     0     0     0     3   1.560
       276.799383      446.119464       94.734057     1     0     0     0     8   1.560
       394.731621       96.474447      385.063716     1     0     0     0     2   1.560
       314.826908      210.890643      376.024644     1     0     0     0     3   1.560
       332.405894      401.762988      150.166528     1     0     0     0     1   1.560
       158.603768      125.169303      130.118503     1     0     0     0     3   1.560
       122.921999      206.906455      359.398359     1     0     0     0     5   1.560
       190.481567       75.146078      427.533932     1     0     0     0     7   1.560
       269.376645      223.652636      118.630395     1     0     0     0     1   1.560
       161.509314      410.367297      321.971141     1     0     0     0     2   1.560
        65.194433      381.140990      221.410928     1     0     0     0     6   1.560
        25.651530       65.351508      323.887850     1     0     0     0     1   1.560
       306.733840      170.276450       13.502449     1     0     0     0     2   1.560
       462.428600       65.661382       46.199365     1     0     0     0     6   1.560
       159.230507      437.008602      216.605269     1     0     0     0     6   1.560
       209.888338      494.204821      343.139543     1     0     0     0     3   1.560
        85.744435      175.063688      159.820531     1     0     0     0     3   1.560
       454.869044      278.910971      417.776708     1     0     0     0     7   1.560
       176.903528       32.676403       92.789278     1     0     0     0     6   1.560
       189.713245      487.438741      318.800114     1     0     0     0     7   1.560
       469.432220      377.844286      136.989354     1     0     0     0     1   1.560
       393.344403       80.924053      341.084908     1     0     0     0     4   1.560
        65.251370      443.996739      493.733053     1     0     0     0     5   1.560
       386.536712      124.492502      379.563628     1     0     0     0     1   1.560
        52.646689      464.647655      428.693554     1     0     0     0     8   1.560
        94.578267      122.057821      255.702585     1     0     0     0     3   1.560
       381.743650      395.426044      456.692734     1     0     0     0     1   1.560
        19.504352      191.934570      291.564220     1     0     0     0     6   1.560
       185.172549      482.389469      136.523095     1     0     0     0     8   1.560
       487.620233      187.683631       15.804273     1     0     0     0     2   1.560
        30.920367      185.886679      455.214824     1     0     0     0     4   1.560
       145.950260      320.075453       25.307971     1     0     0     0     6   1.560
       375.084701      148.357091      190.127544     1     0     0     0     2   1.560
       492.405423      132.883220      206.535893     1     0     0     0     3   1.560
       109.031309      383.248682       79.100928     1     0     0     0     8   1.560
       247.536774      177.742704      113.553167     1     0     0     0     7   1.560
       196.562281      371.271262        7.033200     1     0     0     0     4   1.560
       164.060352      438.085208       49.519345     1     0     0     0     6   1.560
       425.857776      371.261082      120.342484     1     0     0     0     1   1.560
       429.904128       80.741419      433.096276     1     0     0     0     6   1.560
       149.606677      258.477163       35.148286     1     0     0     0     8   1.560
       458.200492       20.061802      369.686734     1     0     0     0     8   1.560
        21.945280       86.895228      125.555088     1     0     0     0     3   1.560
       432.260590       36.597177      365.379444     1     0     0     0     4   1.560
       285.966672      131.483062      221.994462     1     0     0     0     1   1.560
        77.819135      343.767715      454.934275     1     0     0     0     8   1.560
       195.760826      437.435397      425.114665     1     0     0     0     7   1.560
       282.835745      387.174944      447.537689     1     0     0     0     2   1.560
       290.812320       18.451142      475.726151     1     0     0     0     4   1.560
       412.001331       29.272546      225.394957     1     0     0     0     3   1.560
       423.448048      148.035427      251.690358     1     0     0     0     5   1.560
       175.286289      279.729990      355.311428     1     0     0     0     4   1.560
       322.911838      106.876440      205.747281     1     0     0     0     3   1.560
         1.440196      322.165584      106.882160     1     0     0     0     7   1.560
       226.624916      120.053756      284.906638     1     0     0     0     5   1.560
        19.117838       94.615123      249.493083     1     0     0     0     3   1.560
       242.336331      197.713153      105.698949     1     0     0     0     5   1.560
        63.543037      483.193402      182.063520     1     0     0     0     2   1.560
       383.659407      416.949885      220.280240     1     0     0     0     1   1.560
       365.578033      225.364213      431.516550     1     0     0     0     4   1.560
       294.997615      337.499668      279.004398     1     0     0     0     8   1.560
       367.837586      225.996547      215.381023     1     0     0     0     2   1.560
       374.830035      323.076857      370.474978     1     0     0     0     6   1.560
       279.439103      146.149344      452.141125     1     0     0     0     3   1.560
       479.381550      261.984019      161.573090     1     0     0     0     5   1.560
       450.665671      317.134164      109.269620     1     0     0     0     7   1.560
       201.469986      416.947642      342.829478     1     0     0     0     7   1.560
       240.487227      184.683381      370.224580     1     0     0     0     6   1.560
       342.233049      165.471951      325.019605     1     0     0     0     1   1.560
       121.847057       81.713613       35.336867     1     0     0     0     5   1.560
       250.698760       93.565260      428.962901     1     0     0     0     6   1.560
       104.445000      463.485404      160.040594     1     0     0     0     3   1.560
       177.641929      226.470750      281.326900     1     0     0     0     5   1.560
       148.952706       70.721244      259.584025     1     0     0     0     7   1.560
       218.307903      368.372423      359.759283     1     0     0     0     3   1.560
         9.366484      389.635126      490.826462     1     0     0     0     5   1.560
        11.180172      333.137222      378.144500     1     0     0     0     8   1.560
       137.298510      390.263287        4.248949     1     0     0     0     8   1.560
       133.648914      485.282814      204.460760     1     0     0     0     6   1.560
        27.392203      410.983853      210.184266     1     0     0     0     8   1.560
       343.291144      494.551125      295.664618     1     0     0     0     6   1.560
       208.274754       79.966165       14.257903     1     0     0     0     2   1.560
       483.793927      368.790431      148.233810     1     0     0     0     7   1.560
       135.786510      448.396887      349.879091     1     0     0     0     6   1.560
       239.266369       47.624154       93.690295     1     0     0     0     5   1.560
       330.653892      488.777006        4.714704     1     0     0     0     5   1.560
       405.429275      452.612073      140.293799     1     0     0     0     1   1.560
       153.608623      401.213223      441.663452     1     0     0     0     8   1.560
        39.944966       79.305903       32.924659     1     0     0     0     7   1.560
       446.880896      115.754180      354.717189     1     0     0     0     7   1.560
       242.158002      404.158426      159.884650     1     0     0     0     1   1.560
       456.486934      177.442614      219.765169     1     0     0     0     6   1.560
       436.474736      297.845230      387.805321     1     0     0     0     6   1.560
       173.611788      129.231334      279.160043     1     0     0     0     3   1.560
       492.143721      239.629740      299.739741     1     0     0     0     7   1.560
       174.463119      463.830731      166.264649     1     0     0     0     6   1.560
       231.741838      329.786183       23.009495     1     0     0     0     4   1.560
       218.806111       51.498059      460.319917     1     0     0     0     3   1.560
        64.271844      192.255376      424.641963     1     0     0     0     4   1.560
       327.008572       33.251031      285.445755     1     0     0     0     2   1.560
       362.018535      348.090618      357.201979     1     0     0     0     6   1.560
       485.264133       46.194468      222.203284     1     0     0     0     2   1.560
       249.717241      408.409841      313.326891     1     0     0     0     3   1.560
       144.937596      116.920514      127.160098     1     0     0     0     6   1.560
       289.881146      127.634016       19.969382     1     0     0     0     2   1.560
        15.845261      406.156569       96.241011     1     0     0     0     2   1.560
       238.542801      288.510214      232.484651     1     0     0     0     7   1.560
       308.799506      481.607337      343.738123     1     0     0     0     2   1.560
       242.921120      261.838634      238.792324     1     0     0     0     8   1.560
       345.400333      238.877296       18.950665     1     0     0     0     7   1.560
       287.405911       78.662883      152.766608     1     0     0     0     8   1.560
       114.458166       93.234181      240.163696     1     0     0     0     7   1.560
       227.997512      466.870621      211.357436     1     0     0     0     5   1.560
       296.942228      324.632841       77.651673     1     0     0     0     3   1.560
       316.129858       19.818250      362.353960     1     0     0     0     7   1.560
       198.971876      451.883064      373.575825     1     0     0     0     3   1.560
       252.888660       56.132721      221.289924     1     0     0     0     8   1.560
       153.169541      400.151022        1.735006     1     0     0     0     7   1.560
       107.134343      437.037761      159.470072     1     0     0     0     6   1.560
       243.266957      211.916504      290.770182     1     0     0     0     1   1.560
       343.244454      468.483533      290.242722     1     0     0     0     7   1.560
       437.914155      364.686681       29.245539     1     0     0     0     1   1.560
       454.379172      159.853590      473.307083     1     0     0     0     7   1.560
       353.724522       64.348096      387.448834     1     0     0     0     1   1.560
         4.133797       30.250264      499.896729     1     0     0     0     6   1.560
       402.550015      481.169449      201.100172     1     0     0     0     7   1.560
       499.591817      319.485525      189.848225     1     0     0     0     2   1.560
       178.321830       12.918239      489.465750     1     0     0     0     8   1.560
        79.322839      385.867836      369.015164     1     0     0     0     6   1.560
       245.844198      324.734548      280.162056     1     0     0     0     6   1.560
        59.264838       44.479359      275.149970     1     0     0     0     8   1.560
        56.145735       29.357845       54.328024     1     0     0     0     5   1.560
       395.706028      377.063102      468.354976     1     0     0     0     7   1.560
       281.930484      285.720253      240.788580     1     0     0     0     4   1.560
         7.068284      423.784620      201.216463     1     0     0     0     4   1.560
       282.601575      234.375514      130.914182     1     0     0     0     6   1.560
       495.015776      277.674698      158.864825     1     0     0     0     8   1.560
       171.125447      225.679061      294.665829     1     0     0     0     2   1.560
       306.640303      391.960534      207.728506     1     0     0     0     5   1.560
       398.697566      163.730843      246.653942     1     0     0     0     8   1.560
       420.669422      116.118550      136.143144     1     0     0     0     3   1.560
       415.731973      354.725775      206.773921     1     0     0     0     7   1.560
        93.188334      142.467631       39.425536     1     0     0     0     4   1.560
       206.705812      358.336619      264.680903     1     0     0     0     8   1.560
       456.502432        9.562079      227.655808     1     0     0     0     7   1.560
       338.310837      468.204722      484.093333     1     0     0     0     3   1.560
       165.201866      196.076830      360.674209     1     0     0     0     4   1.560
       353.871625       86.464416       58.049856     1     0     0     0     6   1.560
       321.899914      475.278452        5.203008     1     0     0     0     7   1.560
       272.445984      359.781929       14.902330     1     0     0     0     2   1.560
        17.284877       83.562713      453.128755     1     0     0     0     1   1.560
       360.247097      128.243574      132.574499     1     0     0     0     8   1.560
        32.857666      407.375239      270.763875     1     0     0     0     4   1.560
       413.229048      459.365666      161.896974     1     0     0     0     4   1.560
       105.092201      420.645106      442.214342     1     0     0     0     4   1.560
       494.698670      299.959125      139.372917     1     0     0     0     5   1.560
       171.505408       20.710524       18.533540     1     0     0     0     1   1.560
       426.883298       35.140404      336.877611     1     0     0     0     4   1.560
        17.839527      369.035761      435.149698     1     0     0     0     6   1.560
       205.144374      108.095918      163.578560     1     0     0     0     3   1.560
       330.100424      218.313874      306.951421     1     0     0     0     1   1.560