ITEM: TIMESTEP
0
ITEM: NUMBER OF ATOMS
        7862
ITEM: BOX BOUNDS pp pp pp
  0.0000000E+00   500.000000000000     
  0.0000000E+00   500.000000000000     
  0.0000000E+00   500.000000000000     
ITEM: ATOMS x y z f1 f2 f3 f4 orient radius
       309.108398      279.420045      227.699167     1     0     0     0     2   1.560
       437.158094      412.614434       15.929354     1     0     0     0     6   1.560
       213.344550      435.798379       61.504544     1     0     0     0     7   1.560
       134.933619      428.627992      168.774155     1     0     0     0     2   1.560
       423.587761      370.129684      453.085530     1     0     0     0     4   1.560
       272.913641      324.755152      298.989067     1     0     0     0     3   1.560
       161.288785      164.090926      138.024467     1     0     0     0     7   1.560
        36.142991      143.395539      439.094104     1     0     0     0     2   1.560
       183.107488      335.257681      310.832252     1     0     0     0     6   1.560
       100.337759      350.896422       67.893263     1     0     0     0     4   1.560
       274.863537      397.825691      259.056432     1     0     0     0     1   1.560
       261.855642      104.722802      314.844098     1     0     0     0     7   1.560
       456.915504      179.307076      272.850771     1     0     0     0     8   1.560
       395.673197      411.800994      353.900442     1     0     0     0     2   1.560
       235.593434       37.044178       49.971346     1     0     0     0     4   1.560
       393.620892      337.564533      208.458705     1     0     0     0     4   1.560
       406.245355      170.539092      217.019285     1     0     0     0     4   1.560
       368.507815      173.662142      165.526999     1     0     0     0     6   1.560
       281.163860      400.762214      465.614919     1     0     0     0     2   1.560
       374.530793      102.840571        5.280090     1     0     0     0     1   1.560
       490.358477      239.349659      466.211349     1     0     0     0     3   1.560
       390.117886      433.425833      384.156011     1     0     0     0     6   1.560
       206.366567      435.936774      373.092984     1     0     0     0     1   1.560
       393.296629       38.743480      240.071355     1     0     0     0     1   1.560
       239.467939      353.219571        3.533232     1     0     0     0     2   1.560
       307.030942      156.455593      122.780303     1     0     0     0     5   1.560
        24.621947      381.101230      482.482529     1     0     0     0     5   1.560
       371.820968      394.028251      416.518122     1     0     0     0     4   1.560
        40.939298      480.549040      322.316760     1     0     0     0     8   1.560
       243.684717      400.164035      491.561885     1     0     0     0     2   1.560
       297.155942      391.670434      120.256336     1     0     0     0     4   1.560
       331.030447      259.826167      153.479555     1     0     0     0     2   1.560
        78.736613      204.830574       69.753031     1     0     0     0     2   1.560
       265.193212      164.850256      356.964266     1     0     0     0     7   1.560
        87.294838        1.969503      120.606433     1     0     0     0     6   1.560
       139.081954      276.636265      357.651226     1     0     0     0     3   1.560
       335.724992      305.945825      336.360591     1     0     0     0     7   1.560
       178.549399      479.684550      125.706848     1     0     0     0     3   1.560
       213.895703      488.998508      193.817886     1     0     0     0     5   1.560
       226.857180      496.415261      354.983729     1     0     0     0     7   1.560
       271.867803        4.862035      331.888795     1     0     0     0     3   1.560
       388.408787       44.979825       94.489485     1     0     0     0     4   1.560
       494.849376      177.893994       17.697455     1     0     0     0     1   1.560
       182.391752        8.253139      426.494137     1     0     0     0     5   1.560
       189.096325      266.982161      475.280480     1     0     0     0     4   1.560
       263.139255      449.274191      199.080275     1     0     0     0     2   1.560
       472.088579      488.818249      295.262889     1     0     0     0     1   1.560
       289.040071      260.158641      404.437885     1     0     0     0     6   1.560
       320.113877      265.999786      171.817438     1     0     0     0     1   1.560
       106.220380      319.582625       47.367010     1     0     0     0     1   1.560
       103.280510      332.114310      288.778173     1     0     0     0     2   1.560
       140.306786      117.830457      416.202825     1     0     0     0     6   1.560
       165.441998      289.389481      285.541802     1     0     0     0     5   1.560
       457.046054       80.890678       84.158035     1     0     0     0     7   1.560
        69.568256      388.315500      221.973857     1     0     0     0     3   1.560
       297.817622      328.260346      173.402234     1     0     0     0     5   1.560
       373.601027       31.525850      106.497900     1     0     0     0     5   1.560
       120.106787      247.526828      179.179413     1     0     0     0     2   1.560
       230.869445      444.499233      133.657353     1     0     0     0     1   1.560
        64.857613      113.562918       29.750768     1     0     0     0     6   1.560
       167.585772      339.173150      364.458472     1     0     0     0     7   1.560
       330.388294       22.164799      140.143083     1     0     0     0     7   1.560
       471.929095      251.712225      265.318865     1     0     0     0     4   1.560
       215.975765      347.360791       29.767513     1     0     0     0     8   1.560
        51.278044      441.089610      383.270649     1     0     0     0     1   1.560
       333.566914      335.054420       92.706375     1     0     0     0     8   1.560
       206.890244      244.928763      328.439530     1     0     0     0     5   1.560
       197.108022       14.588061      344.790811     1     0     0     0     8   1.560
       390.907619       11.462650      296.559711     1     0     0     0     1   1.560
       150.646013      105.924546       12.141850     1     0     0     0     6   1.560
        55.224951       90.908633      231.590533     1     0     0     0     1   1.560
       443.545598      494.531722      232.506322     1     0     0     0     2   1.560
       115.123938       60.894910      266.814764     1     0     0     0     6   1.560
        91.985015      210.229208      420.514537     1     0     0     0     6   1.560
       155.290408       60.299418       87.457443     1     0     0     0     5   1.560
       213.428169      306.417301      328.196701     1     0     0     0     2   1.560
       445.964206      431.958425      431.458391     1     0     0     0     4   1.560
       258.988962      277.330732      400.283368     1     0     0     0     4   1.560
       490.560687      110.501077      227.779025     1     0     0     0     1   1.560
       116.497005      346.813364      195.675900     1     0     0     0     2   1.560
       205.721859      442.181884      198.167002     1     0     0     0     6   1.560
        19.889169       14.554731      289.366217     1     0     0     0     5   1.560
        19.541805       75.294972      300.331359     1     0     0     0     1   1.560
        54.818294      220.514358      398.070571     1     0     0     0     7   1.560
       212.602690      315.336139      289.720679     1     0     0     0     5   1.560
        20.318451      437.903232      124.746354     1     0     0     0     2   1.560
       135.502375       83.672148      100.039120     1     0     0     0     4   1.560
        12.339340      283.036256       60.878973     1     0     0     0     3   1.560
       395.083519      391.410305      382.282058     1     0     0     0     1   1.560
       237.331810      498.667927      368.248430     1     0     0     0     8   1.560
        73.353613        5.594223      113.507112     1     0     0     0     6   1.560
       228.971608      239.142562       77.064892     1     0     0     0     5   1.560
       290.401847      279.013289       16.916737     1     0     0     0     5   1.560
       215.210683      213.970732      334.747100     1     0     0     0     4   1.560
        81.528889      470.204856      296.959601     1     0     0     0     3   1.560
       227.756746      219.997226      360.862424     1     0     0     0     7   1.560
       420.663158       42.122102      244.078236     1     0     0     0     1   1.560
       425.749763      265.944959      126.013336     1     0     0     0     7   1.560
         3.846607       40.338948      125.944735     1     0     0     0     5   1.560
       470.451402      113.055269      294.390268     1     0     0     0     5   1.560
       461.756779      452.901691      281.033973     1     0     0     0     4   1.560
        19.973427      436.818797      260.548995     1     0     0     0     8   1.560
       464.086580      176.712076      498.098261     1     0     0     0     2   1.560
        59.153198      157.559924      258.744651     1     0     0     0     6   1.560
       443.653188      365.538503      468.678008     1     0     0     0     2   1.560
       128.345460      188.072303      362.170083     1     0     0     0     1   1.560
        40.741473      355.824924      164.921114     1     0     0     0     5   1.560
       420.835041       54.730323       33.905600     1     0     0     0     2   1.560
        68.337866       25.873562      208.076712     1     0     0     0     1   1.560
       487.633527      400.490509      106.340377     1     0     0     0     5   1.560
       132.536405      262.897652       88.295845     1     0     0     0     8   1.560
        16.580440      106.929390      474.938161     1     0     0     0     5   1.560
        98.704677      133.179389      193.142802     1     0     0     0     8   1.560
       439.319718      306.555700      309.698498     1     0     0     0     5   1.560
       319.952017      299.979679      185.170718     1     0     0     0     6   1.560
        23.572124      282.570373      374.062238     1     0     0     0     5   1.560
       188.143538      272.443764      224.510333     1     0     0     0     7   1.560
       492.778728      131.002853      157.045579     1     0     0     0     7   1.560
       382.304361      431.130966      121.194420     1     0     0     0     1   1.560
       299.964341       87.111592      263.634740     1     0     0     0     7   1.560
       315.300945      317.211865      198.816305     1     0     0     0     3   1.560
       274.704754      252.974693      104.185166     1     0     0     0     1   1.560
        87.051684      155.214145      398.983241     1     0     0     0     8   1.560
       179.636069      298.420355      237.147696     1     0     0     0     5   1.560
       345.943354      425.328412      380.047188     1     0     0     0     3   1.560
        82.649382      427.827301      190.495060     1     0     0     0     5   1.560
       139.601731       75.449442      129.468974     1     0     0     0     3   1.560
       132.570517       46.858905      423.341022     1     0     0     0     3   1.560
       460.300380      463.584694      239.109768     1     0     0     0     1   1.560
         3.441566      349.101999      462.314212     1     0     0     0     8   1.560
       180.094956      332.092060      374.927821     1     0     0     0     6   1.560
       322.929253      163.104626      111.795443     1     0     0     0     8   1.560
         6.087743      114.228625        4.873540     1     0     0     0     7   1.560
        48.518375      106.316779      185.174557     1     0     0     0     3   1.560
       150.327255      236.606891      258.720595     1     0     0     0     2   1.560
       377.074519      378.211720      123.150487     1     0     0     0     7   1.560
       375.124446      315.296257       84.885852     1     0     0     0     2   1.560
       292.942631       92.727642       74.260126     1     0     0     0     7   1.560
        60.889147      390.907775       94.237943     1     0     0     0     5   1.560
       252.393919      470.161439      259.286225     1     0     0     0     2   1.560
        74.548375      118.667901      451.687123     1     0     0     0     7   1.560
       370.250474      378.212319      324.369111     1     0     0     0     2   1.560
       272.888037      417.226900      200.218105     1     0     0     0     7   1.560
       407.550228      214.802638      387.344523     1     0     0     0     8   1.560
       231.592896      213.118891      270.356968     1     0     0     0     4   1.560
       152.491106      159.081640      414.096805     1     0     0     0     3   1.560
       330.829985       18.779279      283.113153     1     0     0     0     4   1.560
       227.760710      262.994714      322.785092     1     0     0     0     6   1.560
       485.650328       13.449530      308.941630     1     0     0     0     1   1.560
         7.459515      243.947886      132.842782     1     0     0     0     1   1.560
       419.335765      110.777325      246.118143     1     0     0     0     3   1.560
        82.413247      458.426733      429.036236     1     0     0     0     7   1.560
       125.601081       46.517886      201.237826     1     0     0     0     4   1.560
        95.193415      108.744551      387.049846     1     0     0     0     7   1.560
       221.491622      411.239173      251.643268     1     0     0     0     3   1.560
        55.740085      375.069679      178.241134     1     0     0     0     2   1.560
       161.420853      164.066862       25.332516     1     0     0     0     8   1.560
       294.797257      482.271237      134.613460     1     0     0     0     8   1.560
       489.427221      134.417955      185.427773     1     0     0     0     5   1.560
       232.807081       82.770995      149.195575     1     0     0     0     5   1.560
       177.614178      237.471612      409.318849     1     0     0     0     2   1.560
        85.830024      122.626701      119.871282     1     0     0     0     1   1.560
       176.614470      446.495716      149.360830     1     0     0     0     8   1.560
       102.775167      370.699292      270.309133     1     0     0     0     7   1.560
       104.770098      328.013483      308.046330     1     0     0     0     5   1.560
       469.296742      320.679606      279.751450     1     0     0     0     7   1.560
        98.682910      386.336467      496.668518     1     0     0     0     2   1.560
        66.576269      261.884094      144.242069     1     0     0     0     4   1.560
       144.510843      116.519455      190.609883     1     0     0     0     8   1.560
       338.189411      181.379363      313.390320     1     0     0     0     2   1.560
        15.042125      210.193183      116.138413     1     0     0     0     2   1.560
       183.411244      268.054998      323.126550     1     0     0     0     3   1.560
        89.082217      104.647883      363.078272     1     0     0     0     5   1.560
       226.801024      206.705239      475.744550     1     0     0     0     1   1.560
        92.163955      141.416295      452.093952     1     0     0     0     8   1.560
       473.644460      416.529048       83.981394     1     0     0     0     3   1.560
        70.939088      305.766004      490.687688     1     0     0     0     2   1.560
       170.479314       63.375040       81.418497     1     0     0     0     8   1.560
       340.069037      199.837834      389.216633     1     0     0     0     6   1.560
       190.551482        4.549914      152.439140     1     0     0     0     6   1.560
       208.146001       78.635046      395.350267     1     0     0     0     5   1.560
       474.079900      303.573011      492.558215     1     0     0     0     3   1.560
        89.077278       83.032899      287.764025     1     0     0     0     6   1.560
       219.746275      421.827169      183.705070     1     0     0     0     3   1.560
        84.658266      183.909085      207.933390     1     0     0     0     7   1.560
       384.414125      325.596527      331.607759     1     0     0     0     6   1.560
       361.333768       49.010968       98.795215     1     0     0     0     4   1.560
       496.260747      302.092678        0.361783     1     0     0     0     3   1.560
       298.188291      332.976376      241.895847     1     0     0     0     1   1.560
       241.316532      155.310540      406.166476     1     0     0     0     2   1.560
       463.841840      390.081620      396.723821     1     0     0     0     8   1.560
       362.476269      397.182130      473.514005     1     0     0     0     8   1.560
       388.202859       75.257679      386.924578     1     0     0     0     8   1.560
       102.548753      246.821830      153.947268     1     0     0     0     3   1.560
        31.067369      154.228111       78.830089     1     0     0     0     4   1.560
       369.950283      330.988611      219.334904     1     0     0     0     8   1.560
        87.104387      472.134682      426.701912     1     0     0     0     7   1.560
       286.789781      459.823033      149.366579     1     0     0     0     8   1.560
       436.032076      220.631710      343.049878     1     0     0     0     7   1.560
       278.150695      276.350418      189.811150     1     0     0     0     6   1.560
       310.874104      214.972999      233.248912     1     0     0     0     1   1.560
       149.551073      315.947265      368.445497     1     0     0     0     8   1.560
        31.298277      259.654733      200.747111     1     0     0     0     1   1.560
       185.036932      203.199065       66.709621     1     0     0     0     6   1.560
       182.601171      454.826646      453.809040     1     0     0     0     2   1.560
       464.696580      414.979186       30.992270     1     0     0     0     5   1.560
       319.536324      318.962728      186.115128     1     0     0     0     8   1.560
       491.055849       53.049561       50.713509     1     0     0     0     5   1.560
        27.233415      265.587697       25.255699     1     0     0     0     6   1.560
       336.667901      453.804419      468.744748     1     0     0     0     4   1.560
         8.760699      158.181836      267.013541     1     0     0     0     1   1.560
       180.028340      324.022561        1.844145     1     0     0     0     7   1.560
       479.455941      114.149583      336.153210     1     0     0     0     3   1.560
        34.418600      412.594602       22.858890     1     0     0     0     4   1.560
       173.560325      202.600109      368.350913     1     0     0     0     4   1.560
       291.353395      478.999849      355.879757     1     0     0     0     6   1.560
        81.919993      292.878513      106.763994     1     0     0     0     3   1.560
       204.883962      220.099271        5.000331     1     0     0     0     3   1.560
       389.469753      142.684402      266.085382     1     0     0     0     3   1.560
       449.639316       53.969330      276.354263     1     0     0     0     3   1.560
       293.628698      120.721549      384.233653     1     0     0     0     6   1.560
       225.070431      402.049242       33.852992     1     0     0     0     6   1.560
       220.935602       60.012866      413.269508     1     0     0     0     6   1.560
       424.247190      367.488658       17.793930     1     0     0     0     1   1.560
       121.975030      116.093994       86.205422     1     0     0     0     3   1.560
       361.286650       33.526591       38.072560     1     0     0     0     7   1.560
       336.274546      409.248101       18.949834     1     0     0     0     2   1.560
        52.075814       25.889433      172.760265     1     0     0     0     7   1.560
       151.978910      139.832736      121.741250     1     0     0     0     4   1.560
       107.159789      143.011788       27.873483     1     0     0     0     7   1.560
       305.099149      295.739904      488.429889     1     0     0     0     2   1.560
       105.635026      377.322084      454.381862     1     0     0     0     8   1.560
       338.368139      363.740571      405.658856     1     0     0     0     4   1.560
       470.342666      244.152122      319.935754     1     0     0     0     8   1.560
       192.462356      110.055624      410.026864     1     0     0     0     4   1.560
       481.212512      132.912606      196.773508     1     0     0     0     1   1.560
       419.622318      396.132006      287.024668     1     0     0     0     8   1.560
        19.158441      234.947885      417.333426     1     0     0     0     6   1.560
       125.014075      352.640324      109.155892     1     0     0     0     4   1.560
       239.038774      173.079423      357.101150     1     0     0     0     1   1.560
        90.744654      145.708253      199.021069     1     0     0     0     8   1.560
       120.392387      264.805736      165.388234     1     0     0     0     2   1.560
       111.189844      111.648090      442.371230     1     0     0     0     2   1.560
        43.604182      331.512279      494.997274     1     0     0     0     7   1.560
        71.043734      303.197955       87.338509     1     0     0     0     3   1.560
       245.556128      458.137359        1.449125     1     0     0     0     3   1.560
       232.834313        4.007722      393.266232     1     0     0     0     1   1.560
       141.367852      261.476402      382.098545     1     0     0     0     3   1.560
       305.669401      396.627050      371.264682     1     0     0     0     5   1.560
        44.025495      184.494112      419.115739     1     0     0     0     3   1.560
       304.673366      489.405309      457.796743     1     0     0     0     5   1.560
       265.785148      320.895179      293.291140     1     0     0     0     2   1.560
        89.665824      465.428439      441.305420     1     0     0     0     3   1.560
       339.274811      460.917145      320.879149     1     0     0     0     4   1.560
       206.139846      198.364739      290.763059     1     0     0     0     7   1.560
        38.105961      318.651227      167.782738     1     0     0     0     8   1.560
       467.851385      373.186928      413.980661     1     0     0     0     1   1.560
       332.584459      163.862604       46.919631     1     0     0     0     1   1.560
       331.788281      330.980413        6.960133     1     0     0     0     4   1.560
       265.798189      433.644774       47.001761     1     0     0     0     8   1.560
       122.225974       50.955369      183.015904     1     0     0     0     8   1.560
        87.125986      431.006727      376.350270     1     0     0     0     1   1.560
        43.511962      373.929071       51.899436     1     0     0     0     6   1.560
       201.043219      396.435161      476.156280     1     0     0     0     3   1.560
       438.830242      369.488938       61.069208     1     0     0     0     6   1.560
       172.654155       35.557825       55.420289     1     0     0     0     4   1.560
       265.653193      267.952612       49.463802     1     0     0     0     5   1.560
       393.922091       31.125143       30.507101     1     0     0     0     1   1.560
       355.228508       12.581580      114.802036     1     0     0     0     6   1.560
       212.761602      480.512658      293.673679     1     0     0     0     1   1.560
        68.767987      176.671413      437.828600     1     0     0     0     7   1.560
       289.875490      258.387494      105.163726     1     0     0     0     7   1.560
       291.206269       35.690269       58.764694     1     0     0     0     2   1.560
       348.695043        5.099969      142.476231     1     0     0     0     2   1.560
       185.831345      451.307950       59.153430     1     0     0     0     7   1.560
       222.837613      272.419520      485.505938     1     0     0     0     4   1.560
       182.305125      257.036659      178.997187     1     0     0     0     3   1.560
       304.040993      395.342969      233.764757     1     0     0     0     2   1.560
        82.651510      130.385939      242.150460     1     0     0     0     1   1.560
       217.436758      189.890020      147.624830     1     0     0     0     5   1.560
        44.964411      251.606698      195.704289     1     0     0     0     2   1.560
       469.466040      310.667782      357.954344     1     0     0     0     5   1.560
       478.960914      107.162018      270.969306     1     0     0     0     8   1.560
        85.076331      293.560277       59.305022     1     0     0     0     3   1.560
        94.420484      329.333592      426.433064     1     0     0     0     6   1.560
       237.097904       39.112534       45.724377     1     0     0     0     6   1.560
       257.605021      436.295331      143.500961     1     0     0     0     1   1.560
        51.248510      446.578025      492.569386     1     0     0     0     6   1.560
       356.310006      382.294977      356.402412     1     0     0     0     1   1.560
       490.979236       50.500360      281.163537     1     0     0     0     3   1.560
       255.795283      321.467692       77.651673     1     0     0     0     4   1.560
       222.218044      342.338010      137.567124     1     0     0     0     7   1.560
       136.344526      304.107284      198.328664     1     0     0     0     7   1.560
       361.362956      176.673974      391.117905     1     0     0     0     1   1.560
        60.145436       21.842629       86.654684     1     0     0     0     3   1.560
       412.576243      296.242820      252.147680     1     0     0     0     3   1.560
        16.014346      138.410924      187.003193     1     0     0     0     7   1.560
       240.044498      482.208813      320.327109     1     0     0     0     7   1.560
       339.858929      369.693909      148.018713     1     0     0     0     8   1.560
       149.269728      400.427581       26.865074     1     0     0     0     1   1.560
       253.439112      177.127747      494.280010     1     0     0     0     7   1.560
       240.378377      376.342514      174.047632     1     0     0     0     7   1.560
        24.077073       91.856943       15.208801     1     0     0     0     4   1.560
       295.463229      205.410046      104.374930     1     0     0     0     3   1.560
        17.927658       27.165651      387.272883     1     0     0     0     1   1.560
       115.757071      328.462925      442.060001     1     0     0     0     4   1.560
       235.427588      401.829254      493.847460     1     0     0     0     3   1.560
       355.159498      305.616316      421.315822     1     0     0     0     5   1.560
       378.885273      192.876382      466.955558     1     0     0     0     7   1.560
       457.052505      241.176169      253.312793     1     0     0     0     6   1.560
       275.450948      425.137090      240.119288     1     0     0     0     6   1.560
        81.279756      123.953437      469.731223     1     0     0     0     6   1.560
       383.876985      235.195788       73.261520     1     0     0     0     3   1.560
       483.737043      463.652530       62.339027     1     0     0     0     3   1.560
        98.915130      234.395912      245.507248     1     0     0     0     3   1.560
       148.829428      165.858404      277.636194     1     0     0     0     2   1.560
       238.017507      295.526159      300.328757     1     0     0     0     4   1.560
       140.371742      224.387018        2.237510     1     0     0     0     7   1.560
        79.906207      487.836112      324.536881     1     0     0     0     7   1.560
       215.534809      489.211957       19.897692     1     0     0     0     6   1.560
       117.056257      321.254755      314.254041     1     0     0     0     6   1.560
       212.494360        2.105499      433.675156     1     0     0     0     1   1.560
       270.091246      487.767781      169.613033     1     0     0     0     2   1.560
        99.609524      396.595422      346.143781     1     0     0     0     2   1.560
       244.624831      149.924787      146.806478     1     0     0     0     3   1.560
         0.181435      326.479321       36.771831     1     0     0     0     2   1.560
       128.839541      386.166401      341.776172     1     0     0     0     6   1.560
       300.970340      144.485477      465.120419     1     0     0     0     5   1.560
       434.766698       45.796861      485.896451     1     0     0     0     2   1.560
       292.934085      373.857800      195.157829     1     0     0     0     3   1.560
       486.101773      388.663231      143.092997     1     0     0     0     2   1.560
       101.155788      327.581970      423.079889     1     0     0     0     6   1.560
       168.303130       20.505274      205.994364     1     0     0     0     1   1.560
       215.487184       23.918565      342.874294     1     0     0     0     3   1.560
       382.635507      273.571039      343.304963     1     0     0     0     1   1.560
       264.424457      267.210224      377.082330     1     0     0     0     3   1.560
       461.401110      498.153078        3.982961     1     0     0     0     6   1.560
        52.478183       50.868619      107.508062     1     0     0     0     2   1.560