ITEM: TIMESTEP
0
ITEM: NUMBER OF ATOMS
        7866
ITEM: BOX BOUNDS pp pp pp
  0.0000000E+00   500.000000000000     
  0.0000000E+00   500.000000000000     
  0.0000000E+00   500.000000000000     
ITEM: ATOMS x y z nV nH f3 f4 orient
        47.866605      150.656779      250.103980     1     0     0     0     1
       223.527860      344.708801      498.086103     1     0     0     0     8
       194.817049       68.566861       35.992209     1     0     0     0     5
       423.602856       97.600427      280.283302     1     0     0     0     7
       128.979853      429.636805      475.117181     1     0     0     0     4
       121.534723       22.909517      228.628277     1     0     0     0     2
       329.994638      447.251388      415.340328     1     0     0     0     7
        36.771200      239.518640       15.417844     1     0     0     0     7
       205.497778      306.462775       16.741339     1     0     0     0     3
       408.386435      325.285466        4.731398     1     0     0     0     3
        52.833515      227.786884      207.809799     1     0     0     0     1
       352.938099      485.201459      400.452382     1     0     0     0     7
       317.508536      288.861314        7.041784     1     0     0     0     7
       163.811336      163.286785      212.299247     1     0     0     0     3
       190.063637      192.486220      405.656119     1     0     0     0     8
       195.500496      300.199656      369.143117     1     0     0     0     5
        23.633476      379.945992      385.312281     1     0     0     0     6
        75.179139      408.148988      189.652286     1     0     0     0     5
       251.630510      262.837844      448.554336     1     0     0     0     6
       408.903013      225.943715      324.968001     1     0     0     0     1
       487.953224      294.458084      482.561178     1     0     0     0     4
       123.420004      196.333353       12.720508     1     0     0     0     3
        76.231252      491.250541      266.829328     1     0     0     0     3
       344.998782       85.374462      125.622093     1     0     0     0     7
       358.111689       92.988557      468.737550     1     0     0     0     2
        65.603669      357.785200      197.329851     1     0     0     0     2
       197.506762       16.921728      138.522244     1     0     0     0     3
       211.966857      351.742962      232.591469     1     0     0     0     2
       186.487969      479.181200      439.508280     1     0     0     0     8
        33.637757       47.011118      297.754126     1     0     0     0     3
       276.400774      206.477105      308.137177     1     0     0     0     3
       321.743326      128.024931      188.963651     1     0     0     0     4
       175.012165      100.050881        1.288979     1     0     0     0     5
       129.584980       64.695964      166.618517     1     0     0     0     7
       157.910929      426.475862      326.361791     1     0     0     0     7
        79.372779       87.425174      332.492608     1     0     0     0     5
       164.300926      129.408710      421.509137     1     0     0     0     8
       237.960712      418.301636      129.878278     1     0     0     0     4
       433.664691      255.542865      436.458997     1     0     0     0     5
       419.621747      469.358414      327.990948     1     0     0     0     1
       381.946307      278.649307      254.722736     1     0     0     0     3
       477.372281      258.721572      488.442378     1     0     0     0     7
       394.554047      293.588646      404.723062     1     0     0     0     6
       183.126004      314.272283      165.885359     1     0     0     0     2
       287.464799      337.238128      363.028898     1     0     0     0     1
       217.125537       72.511453       92.643025     1     0     0     0     2
         0.785257       90.791799       84.944110     1     0     0     0     4
       282.591006      322.999492      442.034644     1     0     0     0     2
       316.021086       36.701067      496.332341     1     0     0     0     5
       491.109605      415.246612      139.138809     1     0     0     0     7
       117.881053      185.098693       28.355448     1     0     0     0     2
       395.136437      342.269108      194.318590     1     0     0     0     3
       448.163125      166.351101      203.784711     1     0     0     0     3
       301.370090      162.712495        9.399938     1     0     0     0     1
       364.605230      288.646399      384.260336     1     0     0     0     5
       261.122283      405.406283      496.213692     1     0     0     0     4
        50.825337      198.467504      208.608220     1     0     0     0     1
        57.143296      163.536136      250.322738     1     0     0     0     3
       272.756046      403.491570       98.890412     1     0     0     0     5
       254.441487      106.246211      203.688798     1     0     0     0     7
       143.305871      272.730870       96.925102     1     0     0     0     3
       475.636603      117.227175       64.559073     1     0     0     0     6
       411.970363      472.658302      316.632714     1     0     0     0     5
       468.485082      396.345445      179.119657     1     0     0     0     4
       218.894623       90.554427      197.578459     1     0     0     0     2
       194.608523      496.411446      197.318134     1     0     0     0     8
       188.259111      319.338322      497.046137     1     0     0     0     2
       190.782648       92.493399      151.543179     1     0     0     0     5
       451.014914      440.153768      220.742955     1     0     0     0     8
       289.001211      293.781533      278.150418     1     0     0     0     7
        24.052674      108.802706      339.364469     1     0     0     0     7
       245.900484      366.553412      417.855708     1     0     0     0     2
       406.032304       87.491283      111.057487     1     0     0     0     8
        97.302560      311.951186      107.835361     1     0     0     0     7
        76.490517      333.976285       70.076729     1     0     0     0     4
        57.927453      118.694355      318.661794     1     0     0     0     6
       276.251024      335.697017       81.534618     1     0     0     0     2
       406.330310      342.101238      319.859221     1     0     0     0     3
       435.909765      252.021394      397.199991     1     0     0     0     6
        54.729065      456.877765      424.360663     1     0     0     0     5
       116.308236      238.953687      234.724919     1     0     0     0     6
       471.549206      410.877863      248.276609     1     0     0     0     7
        49.326295      166.105608      325.672816     1     0     0     0     7
        69.333498      468.534543      103.251068     1     0     0     0     1
       442.549216      182.893626      217.713080     1     0     0     0     3
       300.340293      277.306391      472.671772     1     0     0     0     5
        10.401229      397.008926       76.532541     1     0     0     0     1
       487.298916      196.528347      157.419023     1     0     0     0     5
       264.960296      388.363861      347.725876     1     0     0     0     5
       152.505060      188.490045       80.376454     1     0     0     0     4
        43.860909      441.515589      178.834928     1     0     0     0     4
       332.811755      373.091637      192.045589     1     0     0     0     5
        49.616000      276.228018      164.682609     1     0     0     0     6
       300.680025      234.608194      123.393119     1     0     0     0     3
         0.681482      313.349877      495.771099     1     0     0     0     1
       480.489529       73.395369      434.591264     1     0     0     0     3
       480.277869       45.324942      215.937611     1     0     0     0     7
       140.185826      499.860506      300.653798     1     0     0     0     1
       158.458706      498.188028      162.979150     1     0     0     0     4
       460.256791      449.851643      411.462654     1     0     0     0     5
       133.532605      361.787232      252.315847     1     0     0     0     1
       283.831850      479.111621      456.024744     1     0     0     0     6
       446.553581      259.506020      443.977394     1     0     0     0     7
        69.047880      244.225398      347.673432     1     0     0     0     6
        23.538837       65.641184      257.464550     1     0     0     0     1
        36.409901      295.791283      253.020338     1     0     0     0     2
       118.933469       11.342576      156.206990     1     0     0     0     8
       327.329313      155.404737       29.387071     1     0     0     0     8
       225.484953      422.427961      357.965276     1     0     0     0     2
       186.779745       30.337312       20.306719     1     0     0     0     3
       301.079489       62.180625      457.756673     1     0     0     0     4
       111.283606       29.756522       95.764576     1     0     0     0     4
       495.014362      435.909196      346.239083     1     0     0     0     7
        93.201516      339.100075       60.014739     1     0     0     0     6
       267.359723      418.320636      153.713448     1     0     0     0     6
       101.793035      473.066874      234.287398     1     0     0     0     6
       151.227569      178.605078      136.263713     1     0     0     0     6
       121.894190      102.029554      461.021751     1     0     0     0     7
        81.178289      195.404766      194.087023     1     0     0     0     3
       381.155728      307.048125      479.045009     1     0     0     0     1
       487.471228      219.122651      268.294234     1     0     0     0     8
       104.102023       18.596054       93.902975     1     0     0     0     4
       276.996279      304.337727       53.993671     1     0     0     0     4
       297.084517      319.969749      242.851099     1     0     0     0     2
       124.651035      189.164032       59.490690     1     0     0     0     2
       274.858602      314.251602      212.206738     1     0     0     0     1
       274.077298      285.816095      313.799905     1     0     0     0     7
        99.197275      353.052438      176.983628     1     0     0     0     6
       162.559403      232.677003      494.868950     1     0     0     0     7
        18.176939      151.288653      280.489717     1     0     0     0     5
       424.486278      450.571882      411.288271     1     0     0     0     4
       375.006822       73.770906      446.101679     1     0     0     0     7
        66.769015      231.318693      180.685224     1     0     0     0     7
       124.482880       66.438502      224.786082     1     0     0     0     1
       232.817188      375.019007       54.878184     1     0     0     0     7
        81.404698      448.102699      409.807778     1     0     0     0     5
       217.513450      335.216566      121.592094     1     0     0     0     2
       293.994780      316.524555      298.223152     1     0     0     0     1
       419.707233      315.879550      220.400964     1     0     0     0     7
       230.737543      321.789350      147.203345     1     0     0     0     4
       186.539886      270.705047      332.311765     1     0     0     0     7
       149.567174      372.787659      397.578997     1     0     0     0     8
       223.552836      165.504134      337.585374     1     0     0     0     5
       125.670587      424.090258       97.116428     1     0     0     0     6
       371.322456       94.152040      333.789722     1     0     0     0     5
       490.531411      286.236955      390.524727     1     0     0     0     7
       392.180785      261.510966      434.762929     1     0     0     0     4
        90.739771      173.963304        4.799543     1     0     0     0     6
       472.921651      117.568310      339.626418     1     0     0     0     4
       463.920713      116.152085       83.546581     1     0     0     0     3
       410.704346      468.562249      207.466100     1     0     0     0     3
        56.721913      149.649119      145.066522     1     0     0     0     4
       152.533892       60.896120       11.931569     1     0     0     0     3
        78.682171       24.045495      350.190918     1     0     0     0     1
       284.744733      360.259900      396.203198     1     0     0     0     2
       248.621515      378.069540      439.169084     1     0     0     0     2
       444.612521       43.225713      459.600927     1     0     0     0     7
       481.758231      140.516206      215.089874     1     0     0     0     2
       108.656456      157.299305       56.770497     1     0     0     0     3
         5.344156      448.738716      208.322555     1     0     0     0     1
       495.908398      284.861906       32.136702     1     0     0     0     4
       263.614928      265.338493      352.318886     1     0     0     0     8
       283.988359      232.730888      474.111095     1     0     0     0     2
       463.866615      423.110025      311.758195     1     0     0     0     5
       251.028574       26.982613      179.399725     1     0     0     0     1
        15.259366      307.633557      332.569766     1     0     0     0     7
       107.033752      274.840791      250.132548     1     0     0     0     7
       207.375620      351.494527      301.200217     1     0     0     0     7
        84.058833      311.886649      254.981566     1     0     0     0     8
       378.774326       29.812528      361.413108     1     0     0     0     8
       327.582448      363.984114      435.111125     1     0     0     0     1
        42.156368      473.477566      156.022643     1     0     0     0     1
       326.465141      419.754387      242.592513     1     0     0     0     5
        29.950077      400.529099       27.544747     1     0     0     0     2
       193.413799      376.777234      305.246599     1     0     0     0     5
        65.962840      439.722858      401.196156     1     0     0     0     6
       402.977550      450.119867      192.102359     1     0     0     0     5
       191.255628      128.140199      257.064889     1     0     0     0     5
       225.551389      447.198304      144.287512     1     0     0     0     7
       454.328906      262.052730      209.411476     1     0     0     0     7
       283.416240      313.209257      259.965191     1     0     0     0     4
       120.115230      371.065934       96.887176     1     0     0     0     7
       457.394515       37.904592      142.167092     1     0     0     0     7
       167.030612      226.117447      332.622045     1     0     0     0     8
       226.546467      455.006971      286.016418     1     0     0     0     3
       266.972038      309.428963        4.491880     1     0     0     0     4
        80.816403      473.507752      443.690844     1     0     0     0     7
        37.561029      165.580552      406.535843     1     0     0     0     2
       269.141797        8.328276      278.345403     1     0     0     0     8
        24.057920      482.319694      491.541590     1     0     0     0     6
       355.738317       62.165141      308.434902     1     0     0     0     2
       336.856730      391.790390       96.519626     1     0     0     0     2
        69.519621      443.220072      442.327027     1     0     0     0     8
       108.990853      309.152766      176.910459     1     0     0     0     4
       487.302734      375.593459       75.785232     1     0     0     0     5
       241.970448      393.876774      386.199514     1     0     0     0     4
        45.943578      152.596319      339.308675     1     0     0     0     4
       161.685065      472.897312      315.499226     1     0     0     0     7
       438.438707      359.939845      485.319612     1     0     0     0     2
       316.054910      329.061198      374.942001     1     0     0     0     5
       300.691335      124.934616        3.436207     1     0     0     0     3
         3.898474      131.326747      109.194430     1     0     0     0     8
       270.083717      208.863980       76.280007     1     0     0     0     7
       467.122543       27.894365      234.867669     1     0     0     0     5
       366.660405      326.922468      206.472022     1     0     0     0     3
       309.098332      185.276118      289.102456     1     0     0     0     7
       357.661689      346.348727      105.908260     1     0     0     0     3
       198.098399      148.300517       68.105868     1     0     0     0     4
       395.359398      178.019203      245.938277     1     0     0     0     8
       480.863777      258.900525      357.562770     1     0     0     0     2
       186.066290      224.062752      228.932955     1     0     0     0     6
       439.311777      336.041923      185.463739     1     0     0     0     4
       442.817388       71.430443      159.749930     1     0     0     0     7
        95.576806      307.043369      260.085775     1     0     0     0     1
       396.815670      347.348054      375.078058     1     0     0     0     3
       261.623171      428.941018      242.944531     1     0     0     0     2
        14.327618      378.535532        7.205287     1     0     0     0     5
        89.835766       12.457306      292.070629     1     0     0     0     1
       448.735755      155.601456      439.611963     1     0     0     0     2
       347.031839      172.686712      479.709788     1     0     0     0     7
       416.411443      417.093996      447.482332     1     0     0     0     2
       349.217719      159.553464       17.303465     1     0     0     0     8
       382.269748      472.107052      322.330443     1     0     0     0     5
       275.492624      266.393163      254.253189     1     0     0     0     1
        29.982541      216.656695       69.711684     1     0     0     0     5
       198.343175      287.628781      385.493866     1     0     0     0     8
       191.725476      401.152684      472.813832     1     0     0     0     4
       471.431762      207.232353      132.658697     1     0     0     0     5
       456.166105      342.634560      477.199244     1     0     0     0     5
       288.842084      186.473868      138.114841     1     0     0     0     4
       257.781850       54.427962      407.629179     1     0     0     0     1
        60.098824       69.115302      306.293411     1     0     0     0     6
       466.491182      183.012606      110.678205     1     0     0     0     8
       103.272986      327.442123      259.633956     1     0     0     0     1
       168.096275      268.764290      215.373393     1     0     0     0     2
       339.102021      145.859827       54.966146     1     0     0     0     7
       225.945685      302.371301      441.614936     1     0     0     0     7
       115.173715       68.088400      411.051122     1     0     0     0     7
       284.154992      380.080564      484.695086     1     0     0     0     4
       209.006323      331.688058      379.597780     1     0     0     0     1
        95.625963      317.604477      213.836188     1     0     0     0     4
       213.419122      108.267813      168.750167     1     0     0     0     5
       314.960615      212.864400      382.908598     1     0     0     0     8
       292.616990      273.437222      400.035335     1     0     0     0     8
       112.759611      246.708166       52.780332     1     0     0     0     4
       146.541712       38.445581      307.959523     1     0     0     0     6
       284.560063       14.424748      384.328795     1     0     0     0     1
       494.519973      412.696632      388.907201     1     0     0     0     1
       228.177994      474.115556       12.597381     1     0     0     0     7
        57.190497      398.546952      472.443901     1     0     0     0     7
        14.354188      261.147607      129.025812     1     0     0     0     7
       121.281236      105.653176       95.908181     1     0     0     0     3
        95.837500      316.083581      477.167284     1     0     0     0     1
       197.095633      157.431563      499.842385     1     0     0     0     4
       128.825493      229.971980      320.295314     1     0     0     0     5
        62.228359       10.692590      290.327068     1     0     0     0     5
       421.296345      429.110953      448.994386     1     0     0     0     2
       113.808790       30.799837       56.066647     1     0     0     0     5
       409.762937      281.757036      375.938000     1     0     0     0     6
       251.887084      393.959417      234.699717     1     0     0     0     8
       430.281705      307.721013      199.808773     1     0     0     0     3
       161.727006      141.417014      351.683479     1     0     0     0     5
       407.183710      190.296983       53.786268     1     0     0     0     4
       363.109588      307.787096      151.293462     1     0     0     0     6
        56.673159      207.018567       20.157896     1     0     0     0     6
        89.476500        6.961314       21.169520     1     0     0     0     3
       275.847389      324.563386       92.809326     1     0     0     0     7
        83.875683        8.002993      406.425279     1     0     0     0     6
       294.140707      138.126243      331.889095     1     0     0     0     3
       369.205076      316.888026      372.961731     1     0     0     0     5
       282.674969      442.371307      441.693968     1     0     0     0     4
        28.337780      231.717986      274.197681     1     0     0     0     5
       360.869817      357.742970      111.266309     1     0     0     0     6
       217.584991       68.123060      283.913346     1     0     0     0     3
       449.724378      378.036671       84.971046     1     0     0     0     4
       243.962098      401.322325      309.064128     1     0     0     0     3
       278.074389      406.120890      114.484487     1     0     0     0     6
       471.151970      115.523484      106.582895     1     0     0     0     8
       251.752571      415.711803      401.831185     1     0     0     0     8
       213.410430      312.994646      317.667166     1     0     0     0     6
       285.085604      171.301045      369.104000     1     0     0     0     7
       444.917027      382.639861      435.045915     1     0     0     0     8
       406.551492      333.501274      212.016609     1     0     0     0     5
        78.065797      264.334007      178.883892     1     0     0     0     1
       172.036482      430.936383      259.655600     1     0     0     0     6
       351.835105      395.563948      181.064401     1     0     0     0     2
        74.145995       35.210573      209.062930     1     0     0     0     1
       291.817915      164.558719      393.091525     1     0     0     0     4
       426.963868      237.638870      413.806895     1     0     0     0     6
       176.293993      388.061703       82.077157     1     0     0     0     4
       230.521611      151.285904      135.080920     1     0     0     0     1
       225.784369      344.938871       12.738026     1     0     0     0     8
       130.262252      400.066747      283.751503     1     0     0     0     7
       309.581587      440.470840       57.220797     1     0     0     0     3
       410.566832      451.619971      286.576838     1     0     0     0     6
       293.135381      379.681953      192.200563     1     0     0     0     1
       381.294407      368.422703       73.692784     1     0     0     0     6
       274.549686       93.915020      142.795475     1     0     0     0     6
       262.874447      346.684868      278.104235     1     0     0     0     4
        79.491279      395.172796      217.476294     1     0     0     0     3
       458.122271      447.925593       53.282209     1     0     0     0     7
        89.388748      287.420511      442.574284     1     0     0     0     3
        78.071466      223.091762       51.312490     1     0     0     0     1
       420.928885      205.070975      499.577109     1     0     0     0     8
       309.163143       25.348230      427.175449     1     0     0     0     4
       253.310571      230.749914      287.764228     1     0     0     0     1
       169.943581      393.493538      350.673897     1     0     0     0     3
        69.721740      164.556215      226.306971     1     0     0     0     2
        21.825977       80.569847      354.612600     1     0     0     0     2
       312.083488      210.141023      488.838890     1     0     0     0     5
        21.607287      228.605197      286.142946     1     0     0     0     7
       439.422389      441.081296       54.694406     1     0     0     0     2
        97.365908      493.926829      221.119452     1     0     0     0     2
       164.254835      183.853146      241.599300     1     0     0     0     1
       342.194568      157.961028       10.635608     1     0     0     0     4
        38.147045      490.801941      421.503283     1     0     0     0     7
       345.762204      390.935717      329.631821     1     0     0     0     7
       190.873303       56.736954      207.520311     1     0     0     0     2
       363.709927      380.258242       95.812413     1     0     0     0     8
       322.032404      482.058013      437.252604     1     0     0     0     7
        16.688345       93.007018       80.512333     1     0     0     0     8
       108.687768      270.243663      376.572268     1     0     0     0     5
       418.784662      109.356012       14.788885     1     0     0     0     6
       457.379022      469.552261       56.470395     1     0     0     0     8
       189.833272      157.499183      287.384448     1     0     0     0     1
       426.282547      481.487067       49.699311     1     0     0     0     8
       248.642434      474.562779      422.192521     1     0     0     0     2
       254.231324      403.324621      247.685500     1     0     0     0     7
       182.388850      178.733561        0.178392     1     0     0     0     5
        50.742934      486.848661      454.923611     1     0     0     0     5
       213.231400      437.763275      215.398231     1     0     0     0     8
       269.711624      172.643014       68.993525     1     0     0     0     2
       232.084512      253.791477      496.920806     1     0     0     0     8
       154.046622      397.526057       94.883379     1     0     0     0     6
       331.751559      329.508167      233.228078     1     0     0     0     7
       130.893034      477.242378      455.974054     1     0     0     0     7
       332.058032       64.646132      441.109372     1     0     0     0     6
        38.568205       41.624917       48.517505     1     0     0     0     5
       468.470262      341.911652       77.798234     1     0     0     0     1
         7.410924      356.772437      313.632541     1     0     0     0     1
       408.728661      226.965303      152.378389     1     0     0     0     2
         1.750320       20.641268      265.332687     1     0     0     0     3
       495.253174      369.442651      437.005205     1     0     0     0     8
       457.610997      356.373583       79.599567     1     0     0     0     8
       201.749777      409.857968      185.838203     1     0     0     0     5
       480.028969      274.973862       25.994341     1     0     0     0     5
       174.833953      195.415610        5.365136     1     0     0     0     5
       287.715587      202.260410        0.418365     1     0     0     0     1
       287.558218      116.100135      452.445528     1     0     0     0     1
       254.767061      395.292732      283.005892     1     0     0     0     8
       385.655332      141.605553        2.795047     1     0     0     0     6
       155.368371      126.677383      361.298370     1     0     0     0     5
       427.604647      392.543808       92.029988     1     0     0     0     7
       403.213292      213.492486        2.928720     1     0     0     0     4
       383.814886      323.681803      381.313944     1     0     0     0     4
        63.865182      338.841922       90.972883     1     0     0     0     4
       457.087146      103.005855      141.535021     1     0     0     0     6
       445.744962      393.002060      139.806506     1     0     0     0     4
       151.990317      254.109629      338.598144     1     0     0     0     5
       431.375264      374.892422      223.962411     1     0     0     0     3
       381.294530      118.949785       57.888924     1     0     0     0     8
       140.983791      480.048309      127.458229     1     0     0     0     4
       436.154493      479.381733        4.029185     1     0     0     0     6
        35.753648      496.500693      164.209825     1     0     0     0     2
       172.210257      310.953818       22.964569     1     0     0     0     7
       370.575840      293.627223      442.699702     1     0     0     0     5
        96.889697      423.564092       61.338264     1     0     0     0     4
        41.205435      362.924861      165.499449     1     0     0     0     2
       204.443126      185.629771      118.048022     1     0     0     0     7
       362.647072      351.758754      228.745064     1     0     0     0     2
       262.267210      149.434602      219.353141     1     0     0     0     4
       416.684867      307.355279       46.589467     1     0     0     0     6