ITEM: TIMESTEP
0
ITEM: NUMBER OF ATOMS
        7850
ITEM: BOX BOUNDS pp pp pp
  0.0000000E+00   500.000000000000     
  0.0000000E+00   500.000000000000     
  0.0000000E+00   500.000000000000     
ITEM: ATOMS x y z f1 f2 f3 f4 orient radius
       333.793009       29.285362      200.946945     1     0     0     0     8   1.560
       227.904240      335.699284      268.044084     1     0     0     0     5   1.560
        54.295947      155.850395      126.833470     1     0     0     0     3   1.560
       363.290524       72.449340        3.505469     1     0     0     0     1   1.560
       393.364399      120.745065      225.837065     1     0     0     0     7   1.560
       187.308764      449.124408      260.509805     1     0     0     0     1   1.560
       365.226278      185.719233      267.432573     1     0     0     0     8   1.560
        36.442192      309.518613      274.461099     1     0     0     0     4   1.560
       266.362772      115.613066        6.227781     1     0     0     0     2   1.560
       398.572007      158.633239      370.354550     1     0     0     0     1   1.560
       265.368088      375.669644      240.065534     1     0     0     0     2   1.560
       398.724311      150.565660       28.149670     1     0     0     0     6   1.560
        13.465674      117.785027      405.003061     1     0     0     0     8   1.560
       470.874705       99.382870      229.914625     1     0     0     0     4   1.560
       247.382240      346.182547       80.156591     1     0     0     0     7   1.560
       111.532607      426.193071      417.324134     1     0     0     0     2   1.560
       461.838208       46.111738      439.255713     1     0     0     0     7   1.560
       423.078355      388.855503       72.643665     1     0     0     0     6   1.560
       298.947535      416.255709       35.795069     1     0     0     0     1   1.560
        51.377312      459.715094      494.082026     1     0     0     0     2   1.560
       281.028438      114.378656      414.478333     1     0     0     0     4   1.560
        68.751549       58.440619       35.381614     1     0     0     0     2   1.560
       233.844073      328.877562      291.371997     1     0     0     0     6   1.560
       150.915827      309.339905       80.001887     1     0     0     0     7   1.560
       200.778810      254.327693      270.494413     1     0     0     0     8   1.560
       218.271686      465.994190      267.055092     1     0     0     0     3   1.560
        77.634952       20.953243      497.395542     1     0     0     0     5   1.560
       392.240987      403.843850      328.772339     1     0     0     0     6   1.560
       316.357284      245.357061      100.460382     1     0     0     0     6   1.560
       447.726631      338.709016      322.178626     1     0     0     0     1   1.560
        65.488012       86.363316      426.993398     1     0     0     0     1   1.560
       257.598895      123.981146      377.878700     1     0     0     0     6   1.560
        41.148277      390.983325      362.592149     1     0     0     0     1   1.560
       101.390034       48.418879      354.183241     1     0     0     0     2   1.560
       294.810791       64.373920      366.948706     1     0     0     0     2   1.560
       271.956896      105.244104       90.522324     1     0     0     0     5   1.560
       432.937163        7.323382      464.167739     1     0     0     0     1   1.560
       186.462273       25.579220       41.830383     1     0     0     0     2   1.560
       409.278379      335.549144      337.806397     1     0     0     0     8   1.560
       248.617996      122.319786      405.772970     1     0     0     0     5   1.560
       115.859310      466.837049      237.194011     1     0     0     0     5   1.560
       344.714651      239.372829       30.754789     1     0     0     0     6   1.560
       383.819804      127.328540      215.372440     1     0     0     0     6   1.560
       330.139210      152.711817      234.677213     1     0     0     0     3   1.560
       218.590801      124.436806      164.052944     1     0     0     0     7   1.560
       369.878475      450.422055      184.349022     1     0     0     0     8   1.560
        27.697075      474.477126      494.242738     1     0     0     0     3   1.560
        54.753677        1.942606      438.093728     1     0     0     0     5   1.560
       190.264018       83.877307      215.889181     1     0     0     0     6   1.560
       490.277501      372.673496      429.817877     1     0     0     0     8   1.560
       193.715199      325.591067      370.393382     1     0     0     0     6   1.560
       449.865117       77.890909       72.078626     1     0     0     0     3   1.560
       104.139511      170.502026      210.342088     1     0     0     0     7   1.560
       283.780348      288.244152       67.730728     1     0     0     0     4   1.560
       276.766581      414.974738      498.833105     1     0     0     0     3   1.560
       176.877331      445.804178      191.678540     1     0     0     0     2   1.560
        78.120032      457.049840      254.395863     1     0     0     0     3   1.560
       374.684432      492.269963      204.003579     1     0     0     0     1   1.560
         7.781981      441.105380      327.781347     1     0     0     0     4   1.560
       179.109758       37.729347      260.981197     1     0     0     0     1   1.560
        10.968305      146.275034      129.510013     1     0     0     0     3   1.560
       473.656292      123.585415      188.272693     1     0     0     0     8   1.560
        78.458794      379.235636      476.705515     1     0     0     0     4   1.560
       104.044301      217.913035      413.379163     1     0     0     0     5   1.560
       432.103577       89.685989      410.545837     1     0     0     0     4   1.560
       190.189158      426.692051      175.773837     1     0     0     0     3   1.560
        43.419512      347.515912      359.183166     1     0     0     0     8   1.560
       464.905395      169.600484      459.446593     1     0     0     0     5   1.560
       464.828918      231.300663       10.040904     1     0     0     0     4   1.560
       376.991742      369.346767      337.732463     1     0     0     0     6   1.560
       472.486668      486.041091      343.644139     1     0     0     0     8   1.560
       272.447918      194.527777      489.659577     1     0     0     0     5   1.560
       320.671327      132.816567      309.247181     1     0     0     0     6   1.560
       340.283909      397.527285       89.552338     1     0     0     0     1   1.560
       212.241918      322.212523       69.519270     1     0     0     0     6   1.560
        81.172202      133.108449       21.672730     1     0     0     0     8   1.560
       125.725477      318.158839      135.621880     1     0     0     0     5   1.560
       378.279984      498.088860      336.661539     1     0     0     0     7   1.560
       499.217071      465.229347      198.619594     1     0     0     0     5   1.560
       384.453492      102.950342      282.551534     1     0     0     0     3   1.560
       193.245083      426.458220      159.227197     1     0     0     0     4   1.560
        76.659621      492.978000      307.333189     1     0     0     0     2   1.560
        19.196231      483.384030      126.650635     1     0     0     0     5   1.560
       252.127326      314.670786      381.395115     1     0     0     0     8   1.560
       322.423498      390.785194       62.157513     1     0     0     0     3   1.560
       347.580073       67.845049      167.336993     1     0     0     0     3   1.560
       269.949843       56.186457      131.254551     1     0     0     0     6   1.560
        29.901616      167.088314      401.057202     1     0     0     0     6   1.560
       152.055182      471.694154      211.292148     1     0     0     0     6   1.560
       186.111383      435.627111      193.458172     1     0     0     0     4   1.560
       113.469587      494.305941      155.738842     1     0     0     0     6   1.560
        48.310018      309.321435      391.865808     1     0     0     0     5   1.560
       498.524190      331.199327      141.029851     1     0     0     0     6   1.560
       167.347067      226.422741      186.322839     1     0     0     0     4   1.560
       335.496868      231.608604      242.252768     1     0     0     0     4   1.560
       296.468114      487.667289      495.617627     1     0     0     0     4   1.560
       456.940068      310.573771      374.208459     1     0     0     0     8   1.560
       271.809628       34.472787      114.579886     1     0     0     0     7   1.560
       183.893066      420.399431      352.733362     1     0     0     0     2   1.560
       320.307839        6.642813      163.587519     1     0     0     0     4   1.560
       412.945249      417.096758       10.760182     1     0     0     0     5   1.560
        26.486334      342.583929      301.554613     1     0     0     0     1   1.560
       357.814466      449.781637      279.655504     1     0     0     0     4   1.560
       474.844711      229.522409      163.751029     1     0     0     0     8   1.560
       273.655784      436.804265      326.500832     1     0     0     0     6   1.560
       445.984287      211.796983      368.087486     1     0     0     0     5   1.560
       314.431231      346.746984      336.338480     1     0     0     0     8   1.560
       447.738813       46.817449       67.139671     1     0     0     0     7   1.560
       121.656546       93.357630       96.939979     1     0     0     0     7   1.560
        93.442496      346.836827      289.160194     1     0     0     0     3   1.560
       395.592380      198.560141      438.246067     1     0     0     0     3   1.560
       435.288019      294.918381      320.294473     1     0     0     0     8   1.560
        70.990820       57.274034      206.027562     1     0     0     0     3   1.560
       216.149840      205.944630      371.697891     1     0     0     0     3   1.560
       277.860549      377.614856      406.115160     1     0     0     0     5   1.560
       303.274338      108.749591      280.739364     1     0     0     0     6   1.560
       329.786736      306.408324      240.418730     1     0     0     0     2   1.560
       339.294385      127.506242      487.800016     1     0     0     0     6   1.560
        96.286396      422.214358      374.434064     1     0     0     0     7   1.560
       340.831509      314.729674      205.481130     1     0     0     0     8   1.560
       354.429714      328.278540      498.711010     1     0     0     0     1   1.560
       209.680639       28.873465      390.071617     1     0     0     0     8   1.560
         1.042935      134.323039       10.231115     1     0     0     0     1   1.560
       151.813167      481.893593      205.678016     1     0     0     0     7   1.560
       367.245550      246.036563        8.558168     1     0     0     0     6   1.560
        31.733721      404.794224      433.776547     1     0     0     0     7   1.560
        66.570690      242.304330      129.315242     1     0     0     0     1   1.560
       446.167372      120.504265       64.134930     1     0     0     0     1   1.560
        18.103447      386.618140      189.947280     1     0     0     0     8   1.560
       141.428425       93.709675      333.296637     1     0     0     0     7   1.560
       445.759417      490.749356       18.207926     1     0     0     0     2   1.560
       260.624546       37.790115      403.664247     1     0     0     0     5   1.560
       121.956581      131.139718      212.767897     1     0     0     0     8   1.560
        36.621974      370.375632       48.625894     1     0     0     0     2   1.560
       392.722073       57.395950      399.347461     1     0     0     0     8   1.560
       421.386614      318.073877      100.994439     1     0     0     0     2   1.560
        76.751289      406.325741      216.272922     1     0     0     0     3   1.560
        38.016792      255.472412      270.208901     1     0     0     0     7   1.560
       438.554069       75.701129      171.568513     1     0     0     0     6   1.560
        37.663980      241.282225      351.137221     1     0     0     0     4   1.560
       296.788553      195.749581       91.009103     1     0     0     0     6   1.560
       329.103529      416.194115      289.552465     1     0     0     0     5   1.560
       365.018924      433.162771       34.205066     1     0     0     0     5   1.560
        54.417947      139.399536      371.376914     1     0     0     0     2   1.560
       203.985566      277.387366       26.120770     1     0     0     0     1   1.560
       440.793811      292.745630      485.502606     1     0     0     0     4   1.560
        15.078772       72.676520      237.823417     1     0     0     0     7   1.560
       402.156833       28.275241      248.821805     1     0     0     0     6   1.560
       261.627332      341.762135       36.341134     1     0     0     0     1   1.560
       100.831429      169.566869      229.379847     1     0     0     0     3   1.560
       276.176735      386.419036      366.772835     1     0     0     0     1   1.560
        57.310194       78.795600      408.946149     1     0     0     0     3   1.560
       465.346361      180.368497      194.838049     1     0     0     0     6   1.560
       290.609935       87.749343      136.615783     1     0     0     0     6   1.560
       119.810023      400.792844      162.913602     1     0     0     0     5   1.560
        97.725989      155.424709      246.281003     1     0     0     0     2   1.560
       464.542901       14.675391       17.224967     1     0     0     0     4   1.560
       450.898389      169.883180      481.017337     1     0     0     0     8   1.560
       339.592333       15.733573      203.528798     1     0     0     0     8   1.560
       161.556145      377.815580      122.134210     1     0     0     0     7   1.560
       486.736484       28.998811      231.320480     1     0     0     0     4   1.560
        90.144278      309.452848       37.418869     1     0     0     0     5   1.560
        57.239081      371.143584       21.281406     1     0     0     0     5   1.560
       255.434550      466.902637       29.917490     1     0     0     0     6   1.560
       493.432947      120.266819      180.954655     1     0     0     0     5   1.560
       474.272701      155.878365      136.929657     1     0     0     0     6   1.560
       148.529995      469.223928      147.429510     1     0     0     0     8   1.560
       493.814738      146.365511      166.760118     1     0     0     0     5   1.560
        75.416785      159.089015      495.706548     1     0     0     0     8   1.560
        18.064959      494.238644       78.650308     1     0     0     0     1   1.560
       428.977695       47.909298      436.221568     1     0     0     0     8   1.560
       135.527022      281.676512      496.500675     1     0     0     0     7   1.560
       290.511994       50.402694      385.340257     1     0     0     0     6   1.560
       122.904306      191.676384      230.732131     1     0     0     0     8   1.560
       101.659404       84.443602      391.956108     1     0     0     0     7   1.560
       242.308159       89.837596      278.623385     1     0     0     0     4   1.560
        34.093294      255.417305       97.719246     1     0     0     0     7   1.560
       436.770299      311.426434      337.146320     1     0     0     0     6   1.560
       220.694334      251.843902      380.060552     1     0     0     0     6   1.560
        92.362542      203.520594      195.860236     1     0     0     0     5   1.560
        28.813939      280.772656      215.144452     1     0     0     0     5   1.560
       183.653902      417.231889      289.768704     1     0     0     0     2   1.560
       476.792799       62.615928      471.482920     1     0     0     0     8   1.560
       360.050650      168.481404       90.064900     1     0     0     0     4   1.560
       475.360714      413.882609       55.271501     1     0     0     0     7   1.560
       492.525910      478.341226       53.022851     1     0     0     0     3   1.560
       386.975634       49.634454      410.108114     1     0     0     0     3   1.560
       185.892625      442.176168      196.404563     1     0     0     0     1   1.560
       367.104138       83.075605      171.226249     1     0     0     0     2   1.560
        14.840261      200.623454       95.504026     1     0     0     0     3   1.560
       274.401673      472.028990      267.018582     1     0     0     0     6   1.560
       115.645081      382.844891      128.221003     1     0     0     0     7   1.560
       111.345393      373.485832      132.114624     1     0     0     0     7   1.560
       466.922534      154.781441      334.663439     1     0     0     0     3   1.560
       257.450733        3.998867      338.039426     1     0     0     0     8   1.560
       225.381174       24.380396      205.886067     1     0     0     0     7   1.560
       444.246162      173.613696      247.004341     1     0     0     0     2   1.560
        48.116599      435.043601      321.465323     1     0     0     0     1   1.560
       202.189856      161.687746      240.363967     1     0     0     0     1   1.560
       487.951995      375.624566        5.264588     1     0     0     0     6   1.560
        51.299491       58.595489      308.502435     1     0     0     0     2   1.560
       490.454587      198.042066       19.236725     1     0     0     0     5   1.560
       222.703651        5.122597       53.792460     1     0     0     0     5   1.560
        16.532905      191.597507      464.780890     1     0     0     0     6   1.560
       324.268581      345.643421        2.284102     1     0     0     0     3   1.560
       229.359285      243.874219       94.476801     1     0     0     0     5   1.560
       304.398592      145.263957      480.844858     1     0     0     0     3   1.560
       297.017529      453.885328      336.825336     1     0     0     0     8   1.560
        52.333574      232.915476      218.130679     1     0     0     0     7   1.560
       267.141491       71.834763      234.601377     1     0     0     0     7   1.560
       429.297996      269.871935       23.499195     1     0     0     0     5   1.560
       467.771994      344.451067      116.948607     1     0     0     0     4   1.560
       148.017749      440.399912       88.204865     1     0     0     0     6   1.560
       140.499637        8.297706      125.850686     1     0     0     0     2   1.560
       207.612343       99.712048      170.661279     1     0     0     0     3   1.560
       263.877414       93.776168      488.660182     1     0     0     0     1   1.560
       467.383647       51.717870      303.324497     1     0     0     0     3   1.560
       299.075006      328.710401       12.121981     1     0     0     0     6   1.560
       140.233027      102.002603       86.176669     1     0     0     0     5   1.560
       227.092790       94.644680      465.323770     1     0     0     0     4   1.560
       226.777664      228.478767       23.148883     1     0     0     0     1   1.560
       327.518710       74.874539      428.584589     1     0     0     0     4   1.560
       432.823655       19.847591      194.109398     1     0     0     0     8   1.560
        64.409065      333.633890       86.804150     1     0     0     0     5   1.560
         7.862410      457.685777       76.271118     1     0     0     0     2   1.560
       123.397700      232.755599      406.498234     1     0     0     0     8   1.560
       407.953794      221.973948       39.939296     1     0     0     0     5   1.560
       258.465276      287.372685       42.325439     1     0     0     0     8   1.560
       433.143072      459.452883      173.649516     1     0     0     0     3   1.560
       407.361424      288.075897      176.978831     1     0     0     0     1   1.560
       464.707170      133.930732       74.709150     1     0     0     0     4   1.560
       327.480137      229.735404       18.311634     1     0     0     0     7   1.560
       228.083137      457.440338      147.465462     1     0     0     0     8   1.560
       438.761452      373.537032      320.445603     1     0     0     0     5   1.560
       234.810556      129.451985      431.044697     1     0     0     0     7   1.560
       306.202243      348.373452      365.651018     1     0     0     0     3   1.560
       365.810732      416.028167      137.306230     1     0     0     0     2   1.560
       488.287787      490.999725      415.812439     1     0     0     0     5   1.560
       148.752697      395.369844       85.417270     1     0     0     0     5   1.560
       318.710541      149.521879       45.417516     1     0     0     0     4   1.560
       137.905860      148.535585       98.554388     1     0     0     0     5   1.560
       373.481519      163.747204      428.788250     1     0     0     0     5   1.560
        68.517533       12.841566      246.430495     1     0     0     0     8   1.560
       481.966923      335.791493       77.431943     1     0     0     0     6   1.560
       325.143245      107.914075      427.298590     1     0     0     0     4   1.560
         9.329910      165.459652      259.674458     1     0     0     0     1   1.560
       174.198784       77.088488      191.581162     1     0     0     0     6   1.560
        33.772370      180.206510      421.428063     1     0     0     0     1   1.560
       352.701305      361.182801      158.519129     1     0     0     0     3   1.560
        50.980482      492.531893      151.338477     1     0     0     0     6   1.560
       271.958680      280.592644      118.614794     1     0     0     0     4   1.560
       349.930928      232.282189       27.134144     1     0     0     0     3   1.560
       472.791781      101.673174      300.564331     1     0     0     0     7   1.560
       138.330197      470.719595      478.772043     1     0     0     0     7   1.560
       124.393799       70.056023      490.575858     1     0     0     0     5   1.560
       188.457074      131.087979      329.377564     1     0     0     0     5   1.560
       176.468735      233.533277      408.421420     1     0     0     0     7   1.560
       217.102814      205.473127      218.765866     1     0     0     0     2   1.560
       346.031454      300.911491       21.203307     1     0     0     0     5   1.560
       169.845734      410.671769      482.667737     1     0     0     0     5   1.560
       378.106615       49.020752      139.219541     1     0     0     0     4   1.560
        84.215490      109.193984      263.358681     1     0     0     0     6   1.560
       202.969119      249.082306      124.664113     1     0     0     0     8   1.560
       256.149587      243.692167      402.249523     1     0     0     0     2   1.560
       361.584567      115.460803        2.425506     1     0     0     0     8   1.560
       348.323069      290.988309      154.050954     1     0     0     0     3   1.560
       262.774595      259.667015      232.312783     1     0     0     0     6   1.560
       181.578783      324.113009        5.994701     1     0     0     0     5   1.560
       106.559425      296.671100       70.913605     1     0     0     0     3   1.560
        71.277069        8.856399       18.485563     1     0     0     0     1   1.560
       161.396618      248.333216      387.191620     1     0     0     0     1   1.560
        76.885529       83.786840      471.961508     1     0     0     0     5   1.560
         7.742643      180.020474      491.581354     1     0     0     0     5   1.560
       396.369377      323.151950      406.732705     1     0     0     0     5   1.560
       358.208296      465.078244      179.254905     1     0     0     0     3   1.560
       424.963231      443.400183      476.827007     1     0     0     0     2   1.560
       322.688910      492.422795      244.928080     1     0     0     0     8   1.560
        48.372574       74.138532      290.054023     1     0     0     0     8   1.560
        97.426997      444.356164      304.869248     1     0     0     0     1   1.560
       271.979531      399.971594       78.145059     1     0     0     0     2   1.560
        83.386491      386.361916      454.665853     1     0     0     0     2   1.560
       444.872838      433.591155      135.030543     1     0     0     0     4   1.560
       303.765059      261.438607      246.299328     1     0     0     0     1   1.560
       437.176873      221.545765      335.609672     1     0     0     0     4   1.560
       108.113192      352.663069      229.300874     1     0     0     0     3   1.560
       253.304723      110.837717      365.239815     1     0     0     0     6   1.560
       485.473469      161.580316      384.547497     1     0     0     0     7   1.560
        99.543866      349.202885      262.602416     1     0     0     0     4   1.560
       229.510385       80.313812      362.183509     1     0     0     0     8   1.560
       382.321436      153.575102      230.469919     1     0     0     0     6   1.560
       363.947405      292.917641      113.407611     1     0     0     0     8   1.560
        51.190152      281.790720       42.610689     1     0     0     0     6   1.560
       377.034582      160.369272      153.065001     1     0     0     0     3   1.560
       493.532117      324.344220       13.161595     1     0     0     0     1   1.560
       322.846613      297.145251      310.996312     1     0     0     0     1   1.560
        54.050173      347.533872      248.374064     1     0     0     0     2   1.560
       390.500522      414.738446      266.930786     1     0     0     0     2   1.560
       277.899805      413.832531      190.411841     1     0     0     0     2   1.560
       189.516003      469.379836      300.125681     1     0     0     0     8   1.560
       182.108792      202.230124       40.801267     1     0     0     0     7   1.560
       373.068852      134.170132      314.785883     1     0     0     0     8   1.560
       181.445229      427.504477      184.785267     1     0     0     0     4   1.560
        56.996328      153.844077      264.173008     1     0     0     0     7   1.560
       460.827435      105.162648      417.501138     1     0     0     0     2   1.560
       215.952145      496.905146      324.162481     1     0     0     0     5   1.560
        31.513746      470.130844      498.076432     1     0     0     0     4   1.560
       205.061251       93.891198      227.664357     1     0     0     0     8   1.560
       142.511377       94.825087      433.330478     1     0     0     0     4   1.560
        94.561673      179.316551      144.651368     1     0     0     0     2   1.560
       410.634773      295.789884      152.308598     1     0     0     0     8   1.560
       421.308115      204.740441      454.369224     1     0     0     0     7   1.560
        72.318201      365.174647        7.664798     1     0     0     0     4   1.560
       348.717692       32.481741      491.021304     1     0     0     0     1   1.560
       293.102726      137.926648      295.869184     1     0     0     0     8   1.560
       455.993490       25.309615      230.913028     1     0     0     0     5   1.560
       234.472117      397.631924      131.024954     1     0     0     0     7   1.560
       202.324155      468.685953      299.958460     1     0     0     0     7   1.560
       156.144640      428.867474      487.451250     1     0     0     0     5   1.560
       339.049849      422.308143       26.211377     1     0     0     0     1   1.560
       238.900347      190.222733      302.944939     1     0     0     0     3   1.560
       167.095192      350.270142      452.561781     1     0     0     0     2   1.560
       196.598260       42.530339      486.457403     1     0     0     0     1   1.560
       480.009132      196.616209      119.190444     1     0     0     0     2   1.560
        96.444375      361.778776      342.978631     1     0     0     0     8   1.560
       164.082546      499.706817      453.539033     1     0     0     0     3   1.560
        77.040631      236.662621      150.510583     1     0     0     0     5   1.560
         3.295992      281.938564      305.560020     1     0     0     0     3   1.560
       446.545309       83.152636      428.885425     1     0     0     0     2   1.560
       227.756818      184.744627      109.165699     1     0     0     0     4   1.560
       375.602892      485.975918      134.965761     1     0     0     0     8   1.560
       161.174284      434.140570       54.306647     1     0     0     0     8   1.560
       385.205483      318.291270      123.408644     1     0     0     0     5   1.560
       480.083035      124.165741      486.174184     1     0     0     0     8   1.560
        22.594170      337.217646       53.970472     1     0     0     0     1   1.560
       384.218081      240.336967      322.731490     1     0     0     0     8   1.560
       203.408349      128.281368      196.789278     1     0     0     0     6   1.560
       459.405600      103.966275      126.371555     1     0     0     0     3   1.560
        11.414365      267.235426       34.089716     1     0     0     0     1   1.560