ITEM: TIMESTEP
0
ITEM: NUMBER OF ATOMS
        7853
ITEM: BOX BOUNDS pp pp pp
  0.0000000E+00   500.000000000000     
  0.0000000E+00   500.000000000000     
  0.0000000E+00   500.000000000000     
ITEM: ATOMS x y z nV nH f3 f4 orient
       112.930159      210.785598      397.382424     1     0     0     0     5
       324.474294      275.326274      127.698069     1     0     0     0     5
       472.412211       76.320381      241.862597     1     0     0     0     7
       337.348312        5.209086      169.282732     1     0     0     0     4
       227.220047      256.372326       72.004089     1     0     0     0     4
        33.692346      144.796294      172.212864     1     0     0     0     1
        30.604258      408.878620      429.366141     1     0     0     0     5
        53.742460      423.203570      412.924571     1     0     0     0     7
       455.102137      373.769165      150.951552     1     0     0     0     4
       222.489133      309.118508      369.999839     1     0     0     0     5
       246.623613      442.790043       15.007494     1     0     0     0     1
        78.397049       58.799048      473.559580     1     0     0     0     1
       440.842992       94.665699      175.224995     1     0     0     0     5
        86.265170      199.686006      213.881822     1     0     0     0     2
        28.672588      431.759563       15.422208     1     0     0     0     3
       235.064867      308.112530      380.221141     1     0     0     0     4
       449.252460      318.225574      402.720604     1     0     0     0     3
       258.199983      364.623023      133.631225     1     0     0     0     6
       491.159010      447.146677      492.711503     1     0     0     0     8
        29.688516      117.106538      224.138369     1     0     0     0     3
        48.465422      445.070432      383.070165     1     0     0     0     4
         2.917430      358.532341      312.357418     1     0     0     0     2
       336.872458      398.494172      301.707033     1     0     0     0     8
       325.362580      385.867606       59.016869     1     0     0     0     4
       429.814949       80.046877      390.930714     1     0     0     0     8
        77.796976      160.265138      190.255478     1     0     0     0     2
        82.668451      461.254765       94.833488     1     0     0     0     6
       415.263162      466.228422      170.618516     1     0     0     0     7
       142.529653       44.603899      299.467412     1     0     0     0     3
        68.341718      493.157003      459.299306     1     0     0     0     5
       310.203646       30.392747      236.187799     1     0     0     0     6
       342.316799      110.616608      143.068981     1     0     0     0     1
       246.609017       13.758659      167.642743     1     0     0     0     1
        41.665729      459.699988      425.377762     1     0     0     0     2
       282.816306      346.008619      402.727861     1     0     0     0     5
       471.958687      188.311506      322.848118     1     0     0     0     3
       246.912789       31.357137      408.977253     1     0     0     0     2
       147.481665       52.583680      228.916804     1     0     0     0     2
       127.673877      316.941518      135.541313     1     0     0     0     1
       118.757459      390.511687      493.929622     1     0     0     0     5
       296.953904      168.896557      267.600253     1     0     0     0     6
       229.383289      322.460923      279.275308     1     0     0     0     1
       496.367169      227.310215        8.399316     1     0     0     0     4
        98.156800      454.213280       35.182068     1     0     0     0     2
       123.171935       41.819949      317.131575     1     0     0     0     7
       165.960855      478.827719      430.881429     1     0     0     0     5
         9.904050      305.593907      111.247276     1     0     0     0     6
       422.051665      412.477542      436.528431     1     0     0     0     1
       288.246735      383.589352      136.964308     1     0     0     0     2
       498.222279      135.854255       77.506871     1     0     0     0     3
       383.175367       38.917243      345.482800     1     0     0     0     5
       400.712416       20.499718       45.134947     1     0     0     0     4
       253.054244       85.535254      384.507677     1     0     0     0     6
        37.959318      195.180377      192.131912     1     0     0     0     1
       139.762978      329.483642      324.335232     1     0     0     0     4
       132.695044      320.352679      494.301717     1     0     0     0     2
       365.523610      157.713214      178.716438     1     0     0     0     4
       397.731431      220.714354      487.302385     1     0     0     0     7
       257.642070      480.801772      458.011197     1     0     0     0     5
       141.012006      369.546455      239.270585     1     0     0     0     7
       329.404237      166.681151      456.186920     1     0     0     0     7
        31.990314      160.473409      355.373500     1     0     0     0     8
       130.170828      192.439824      492.112530     1     0     0     0     7
       283.734329      465.749558      453.684335     1     0     0     0     8
       120.507456      228.549951      182.014282     1     0     0     0     4
       122.364056      100.503001      305.607956     1     0     0     0     3
        12.161094      112.402578       61.355513     1     0     0     0     3
       320.575589      241.742698      260.942103     1     0     0     0     1
       301.677862      381.166251      110.316763     1     0     0     0     1
        76.914021      296.293516      186.651010     1     0     0     0     7
        68.319655      424.595010      120.621468     1     0     0     0     4
       320.437798      180.658950      298.142292     1     0     0     0     4
       431.235691      150.958029      155.423615     1     0     0     0     4
       483.055613      366.613611      139.904979     1     0     0     0     2
       467.935609      242.339084      309.051613     1     0     0     0     6
       106.322671      197.281334       67.341951     1     0     0     0     8
       326.100965      385.219217       34.285314     1     0     0     0     2
       146.628291      131.237568      415.940958     1     0     0     0     6
       490.682305      147.382420      466.759164     1     0     0     0     6
        27.265821      311.825729      130.490039     1     0     0     0     8
       187.407382      303.002903      288.424477     1     0     0     0     6
       351.390149       72.235865      348.869525     1     0     0     0     3
       280.469708       37.681269       78.370063     1     0     0     0     1
       180.199623      318.823548      290.211662     1     0     0     0     6
       354.593199      172.067168      350.671638     1     0     0     0     5
        16.289737      285.115063      149.071572     1     0     0     0     5
       283.909358       66.659955      149.812660     1     0     0     0     8
       147.313168      376.876965       99.595449     1     0     0     0     6
       386.292894      462.753295      435.989638     1     0     0     0     4
       344.658667      193.061174      449.339323     1     0     0     0     8
       481.518807      131.571841       79.357897     1     0     0     0     6
        46.932138      440.394917       79.831611     1     0     0     0     8
       472.052531      102.100677      271.451273     1     0     0     0     2
       352.370814      246.988051      489.941248     1     0     0     0     2
       431.651101      131.235793      490.377122     1     0     0     0     4
       147.945866      414.036387      391.245672     1     0     0     0     5
        87.177047       31.827976      415.543504     1     0     0     0     6
        61.612681      257.132867      365.868334     1     0     0     0     6
       166.443535      337.745656      427.759773     1     0     0     0     3
       252.916919      230.786842      436.745671     1     0     0     0     2
       344.890577      184.817511      209.811903     1     0     0     0     4
       223.615841      176.802628      492.440272     1     0     0     0     2
        27.981641      472.099643      403.900064     1     0     0     0     5
       326.655852      414.992979      313.187589     1     0     0     0     2
       106.804500      330.248066      257.927076     1     0     0     0     1
       322.787926      316.125323       15.825355     1     0     0     0     5
       300.812155      409.167951      203.011269     1     0     0     0     1
       409.847391      272.284261       49.164866     1     0     0     0     1
       219.478261      449.664433      353.888173     1     0     0     0     3
       234.968140      478.815927       89.497097     1     0     0     0     3
       396.180120      289.875289      380.011401     1     0     0     0     5
       361.679325      212.246417      267.825439     1     0     0     0     1
       281.970031      184.747826      151.757140     1     0     0     0     3
        32.150841      339.534031      348.349516     1     0     0     0     4
       387.559634      332.270773      279.875803     1     0     0     0     7
        87.375181      338.266707      338.999984     1     0     0     0     8
       465.667340      451.100778      297.221863     1     0     0     0     6
       357.721819      146.678682      461.522528     1     0     0     0     1
         8.498614      413.953584      387.087853     1     0     0     0     8
       199.613708      470.541703       84.573263     1     0     0     0     2
       227.732058      330.964770      231.870619     1     0     0     0     5
       459.991013      479.559512       54.846115     1     0     0     0     7
       172.489759       56.344374      392.674684     1     0     0     0     4
       177.864636      201.901557      184.910380     1     0     0     0     6
       333.047163       52.083696      185.622782     1     0     0     0     6
       245.317147      147.151322       59.198392     1     0     0     0     6
        63.202245      235.449018      420.902811     1     0     0     0     3
       486.701026       90.465388      114.548625     1     0     0     0     5
       171.896988      392.375337      173.110331     1     0     0     0     2
       312.791336      174.411047      443.150207     1     0     0     0     7
       189.117960      262.439418      109.538137     1     0     0     0     6
       295.179004      299.812220       85.831677     1     0     0     0     4
       435.011628      196.915637      369.942750     1     0     0     0     1
       172.318054      457.054181      492.783835     1     0     0     0     7
       187.296037       92.177453      312.823555     1     0     0     0     8
       276.790517       97.932919       43.238611     1     0     0     0     4
       324.366327      411.050419      277.848781     1     0     0     0     7
       391.821073      239.803814      152.301622     1     0     0     0     8
       123.329788      371.447348      310.181718     1     0     0     0     7
       421.920465      171.833343      308.574502     1     0     0     0     6
       441.550547      110.319992      266.020680     1     0     0     0     2
       348.171991       91.406381       96.517925     1     0     0     0     8
       271.152811      494.333697      350.049186     1     0     0     0     3
       354.084815      368.234309      219.406658     1     0     0     0     4
       149.056550      401.685315      303.566680     1     0     0     0     7
       412.748417      281.566747      168.490583     1     0     0     0     3
       127.330674      106.421791      318.408441     1     0     0     0     6
       150.961862      454.254976      409.189305     1     0     0     0     1
       472.639250      240.463151      353.043681     1     0     0     0     8
       141.875701      232.597887      324.844490     1     0     0     0     5
       343.016642      469.430590      399.777417     1     0     0     0     5
       112.299817      232.307596      378.072274     1     0     0     0     7
       302.901728      194.374428      273.269029     1     0     0     0     3
       449.280857      160.269259      221.345288     1     0     0     0     4
       214.313118      369.375868       52.319705     1     0     0     0     2
       220.135168      359.078642      426.508485     1     0     0     0     8
       444.837916      430.331185       85.724455     1     0     0     0     2
       217.741424      314.425292      299.623719     1     0     0     0     4
       344.434231      190.163514      350.819179     1     0     0     0     6
       461.032061      353.784227      224.148304     1     0     0     0     5
       425.408354      289.480615      248.141891     1     0     0     0     6
       248.935303      398.722079      330.204577     1     0     0     0     1
       295.013851      109.674029      331.291032     1     0     0     0     1
       262.220026      260.554525        7.228629     1     0     0     0     6
       185.856089      319.577766      341.199980     1     0     0     0     4
       409.129214      334.310391       68.946948     1     0     0     0     4
         8.468907      131.796160      315.316600     1     0     0     0     4
        23.474761      151.452342      107.853758     1     0     0     0     5
        65.631624      357.730811      322.897102     1     0     0     0     4
       496.452393      236.597930      440.223496     1     0     0     0     4
       415.827561       82.784909      259.820343     1     0     0     0     4
       423.393403      138.075991      320.234635     1     0     0     0     3
       163.816988       12.198220      486.980260     1     0     0     0     8
       271.948088      348.135027      139.994113     1     0     0     0     8
       211.790890      398.570455      136.982944     1     0     0     0     8
        42.113239      160.848728      124.503538     1     0     0     0     3
       378.998321       54.214830      109.830515     1     0     0     0     4
        90.509483      172.206927      308.029663     1     0     0     0     1
        28.737988      213.021802      325.262512     1     0     0     0     4
       247.692834      347.902966      326.395873     1     0     0     0     3
       422.085913       44.772910       11.739469     1     0     0     0     2
       345.066380       26.843346       54.152689     1     0     0     0     7
       419.512198      207.661273      120.192853     1     0     0     0     6
       428.839806        5.045648       76.602480     1     0     0     0     8
       451.977166      397.247928      105.128097     1     0     0     0     5
       274.884912      371.149382      493.413856     1     0     0     0     8
       486.368424      347.143979       96.016351     1     0     0     0     5
        73.829377       76.620529      101.879789     1     0     0     0     2
       345.582901      369.801347      324.148552     1     0     0     0     5
        32.575869      490.249853      367.210564     1     0     0     0     2
       258.847394      477.349892      349.410294     1     0     0     0     6
       403.963005      400.312661      212.753433     1     0     0     0     4
       454.465320      123.167080      261.166810     1     0     0     0     1
       102.660554      353.464861      208.561955     1     0     0     0     3
       223.416572      192.093014      228.221075     1     0     0     0     6
       380.592764      180.695685      109.625404     1     0     0     0     8
       287.881174      396.847877      375.512433     1     0     0     0     4
       261.028172      436.964168      496.465549     1     0     0     0     1
       112.775615      266.973664      432.468897     1     0     0     0     3
       400.506078      145.027765      489.453800     1     0     0     0     4
       373.860677      314.059966      315.290330     1     0     0     0     3
       331.102869      475.036549      238.490940     1     0     0     0     5
       341.128523       47.381650      263.110673     1     0     0     0     5
       446.883406      485.613510       97.487139     1     0     0     0     6
       228.007041      161.779287      262.314747     1     0     0     0     2
       391.721130      142.407255      461.023948     1     0     0     0     1
       242.709993      419.601165      325.780042     1     0     0     0     3
       213.998815      270.139231      293.334015     1     0     0     0     4
       271.466962       54.134470      215.192604     1     0     0     0     8
       302.927969        6.015947      247.066166     1     0     0     0     5
       208.033001      241.102504      432.348178     1     0     0     0     1
       181.428229       97.426351      269.178649     1     0     0     0     8
        42.013045      414.469683      240.385173     1     0     0     0     3
       164.739930      422.359997      268.315176     1     0     0     0     2
        51.676772      498.780889      268.035700     1     0     0     0     2
        45.177797      124.351563      212.382789     1     0     0     0     1
       311.688837        6.914731       45.201118     1     0     0     0     1
         7.786556      298.925182      190.318526     1     0     0     0     4
       358.238405      452.835643      451.791017     1     0     0     0     2
       286.893995      220.163957       17.691584     1     0     0     0     7
       373.962890      282.929837      449.914901     1     0     0     0     3
       329.419690      472.281253      250.333274     1     0     0     0     3
        64.105055        8.985195      158.887776     1     0     0     0     4
       173.481713      232.624510      229.845262     1     0     0     0     6
       420.103966       11.348521      162.217838     1     0     0     0     1
       479.916307      496.260581      297.713987     1     0     0     0     8
       398.196352      133.451233       60.495776     1     0     0     0     8
       138.981439       26.801916      164.010697     1     0     0     0     8
       256.474304      250.465153       13.165229     1     0     0     0     7
       389.076956       13.392720      472.490405     1     0     0     0     3
       105.710436       31.428934       68.666510     1     0     0     0     7
       310.150731      266.483031      355.900106     1     0     0     0     2
       249.452704      170.660103       89.185095     1     0     0     0     2
       332.987372      135.272522      495.946846     1     0     0     0     1
        79.610546      321.702371      103.489998     1     0     0     0     4
       499.135974      390.743673      414.902325     1     0     0     0     6
       226.804883      339.976360      326.484929     1     0     0     0     1
       226.554566       38.958204      425.122767     1     0     0     0     4
        20.461237      312.949740      205.012936     1     0     0     0     7
       459.517550       12.456857      468.862126     1     0     0     0     3
       487.031172      417.457633      195.115365     1     0     0     0     7
       127.286546      343.657847        4.494976     1     0     0     0     2
       387.301797       86.343156      198.457648     1     0     0     0     7
       457.106195       32.868446      406.692159     1     0     0     0     8
       340.031261      450.236126      178.453949     1     0     0     0     8
       441.149225      161.633076      223.146621     1     0     0     0     4
       155.607595      456.984976       85.297089     1     0     0     0     1
       125.835136      283.337603      170.295348     1     0     0     0     2
       373.730804      120.982484      491.552966     1     0     0     0     3
       126.291799      146.592518      282.508869     1     0     0     0     5
       346.639350      313.111296      278.818602     1     0     0     0     5
       271.422386      436.564072        1.149556     1     0     0     0     4
       209.993126      182.180945       10.366670     1     0     0     0     7
        47.818968      451.840694      218.938836     1     0     0     0     6
       436.769061      177.562427      442.763447     1     0     0     0     4
         8.087248      132.559539      109.542681     1     0     0     0     1
       367.733224      373.496117      403.187506     1     0     0     0     7
       354.927649      473.889529       87.844665     1     0     0     0     4
       100.929939      350.157161      309.329610     1     0     0     0     3
       120.871627       16.932526       87.154124     1     0     0     0     3
       224.858868      180.660494      427.417117     1     0     0     0     1
       205.496018      314.315495      231.012996     1     0     0     0     5
       176.947390      379.483873       45.387468     1     0     0     0     7
       314.668920      271.004039      169.955773     1     0     0     0     5
       303.093268      267.039415      498.970771     1     0     0     0     7
       463.071802      397.020536      489.310114     1     0     0     0     6
       263.748198      239.303642        4.574897     1     0     0     0     8
       419.331511      139.119809       75.796496     1     0     0     0     3
       302.010061       34.246041      339.643551     1     0     0     0     5
       395.941492       22.389285      154.347842     1     0     0     0     5
       397.266736      277.779067      371.873645     1     0     0     0     6
       103.409160      131.324809      361.747520     1     0     0     0     2
       418.943724      225.648968       84.869952     1     0     0     0     4
       218.161171      203.299828      329.209038     1     0     0     0     6
       245.151375      113.513583      399.407765     1     0     0     0     6
       405.349385      362.112073      403.410813     1     0     0     0     6
       136.829923      244.882416      158.680846     1     0     0     0     6
       369.403476       74.657835      414.255569     1     0     0     0     8
       264.144816      115.468886       47.243560     1     0     0     0     7
       245.509788      130.046292      101.066122     1     0     0     0     6
       152.993459       86.502982      245.234291     1     0     0     0     6
       466.144666      467.999504      385.820442     1     0     0     0     6
        41.660879       70.208823      435.460970     1     0     0     0     1
        49.814835      255.913396       86.490513     1     0     0     0     6
       161.948442       42.088452      202.916968     1     0     0     0     5
       128.706604      146.019507      174.998899     1     0     0     0     4
       496.806995      385.616482      155.052788     1     0     0     0     6
       440.871447      238.279977      401.393677     1     0     0     0     7
       260.570424      366.662101      336.998972     1     0     0     0     4
       488.275632       97.520333      409.726428     1     0     0     0     3
         4.736079      269.099905      444.330215     1     0     0     0     5
       131.999410       53.679861      436.140547     1     0     0     0     8
       486.002057      340.723939      144.542605     1     0     0     0     2
       472.419060      493.638500      263.852939     1     0     0     0     6
       400.231546       83.080967      230.109222     1     0     0     0     4
        76.546835      394.068714      453.917996     1     0     0     0     4
       435.281029      398.876713        4.407421     1     0     0     0     2
       234.519665       43.666791      369.446694     1     0     0     0     7
       246.429632      458.110794      427.965310     1     0     0     0     6
       204.864607      137.594986      176.503110     1     0     0     0     6
       262.855845      333.513775      233.273958     1     0     0     0     7
       483.392645      145.311688      454.335439     1     0     0     0     5
       210.246416      385.278256      258.985728     1     0     0     0     7
       164.344456      369.813611      383.567289     1     0     0     0     7
       127.703873      190.587220      325.313402     1     0     0     0     4
       149.015793      447.160681      189.229955     1     0     0     0     8
       163.613281      333.355695      274.710305     1     0     0     0     7
       192.394514      235.010253      287.704135     1     0     0     0     8
       486.243362      359.391794       50.306835     1     0     0     0     6
       301.440785      133.551875       25.348652     1     0     0     0     6
       440.512382      157.069570      152.039707     1     0     0     0     1
       220.619017      435.636504      453.473485     1     0     0     0     6
       143.597132      295.545907       65.928617     1     0     0     0     1
       356.583964       19.554625      199.341105     1     0     0     0     7
       100.716770      318.077872      466.649475     1     0     0     0     5
       306.339909      356.472478      451.215420     1     0     0     0     6
       271.807472      485.078012      291.995633     1     0     0     0     7
       173.846344      229.964465      324.324096     1     0     0     0     7
        41.188864      232.450388      351.454933     1     0     0     0     7
         8.623693      161.620939      440.189510     1     0     0     0     3
       459.710588      266.411659      285.618080     1     0     0     0     4
       251.074952      221.747306        9.197530     1     0     0     0     7
        37.211461      219.537765       76.228661     1     0     0     0     3
        66.729020      200.455176      365.689074     1     0     0     0     1
       221.216442       56.124896      362.970720     1     0     0     0     2
       373.369522      330.950398      434.447936     1     0     0     0     3
       163.462567        8.785870      353.376721     1     0     0     0     2
       101.302841       35.951879      228.433519     1     0     0     0     8
       129.139333      397.547968      246.286905     1     0     0     0     4
        60.922860       28.482764      304.988322     1     0     0     0     3
       397.974779      472.477040       59.366413     1     0     0     0     8
       401.141887      461.693156       65.617060     1     0     0     0     5
        35.436544      160.610363      263.149845     1     0     0     0     2
       353.068504      309.660939      342.199170     1     0     0     0     7
       414.445728      171.720649       92.538722     1     0     0     0     5
       425.398826      173.235101      386.342164     1     0     0     0     2
       261.057899       67.185019      406.672517     1     0     0     0     5
       250.239139      299.153988      422.188124     1     0     0     0     3
        46.861734      368.036173       57.574390     1     0     0     0     2
       110.955813       78.049700      468.355170     1     0     0     0     1
       473.038289      104.865534       35.556446     1     0     0     0     4
        47.784682      228.312396      286.074133     1     0     0     0     5
       362.117354      346.623226      199.644946     1     0     0     0     6
       414.692215      187.113318      290.282773     1     0     0     0     3
       212.448473      277.796545       90.876503     1     0     0     0     8
        46.985775      182.585426      158.008574     1     0     0     0     7
       371.386820      460.893411       63.959375     1     0     0     0     4
       339.206457      111.891345      325.766872     1     0     0     0     8
       487.077944      358.499716      218.807101     1     0     0     0     1
       237.358738      393.710157      259.267270     1     0     0     0     6
       271.324499      311.369790      414.673025     1     0     0     0     1
       288.455468      345.217690        4.791442     1     0     0     0     8
       378.921347      224.317058      424.628833     1     0     0     0     4
        94.843344      115.765565       13.523002     1     0     0     0     3
       372.632911      381.385927       50.392110     1     0     0     0     2
        10.134625      118.957674      316.923216     1     0     0     0     4
       496.612235      393.025262      411.130183     1     0     0     0     6
       150.661285       45.967716      310.326678     1     0     0     0     1
       234.292109      111.712250      417.034846     1     0     0     0     2
       488.441911       79.234703      376.828546     1     0     0     0     4
       336.302105      474.107690      435.181509     1     0     0     0     4
       415.933947       88.281630      463.936596     1     0     0     0     7
       473.429909       73.012717      123.570946     1     0     0     0     4
       282.734731      454.085466      351.965035     1     0     0     0     1
        77.849285      230.570459      269.126659     1     0     0     0     3
         5.437193       68.818633      402.559920     1     0     0     0     6
       294.348344      381.492423      197.912949     1     0     0     0     7
       110.691762      496.688499      214.084320     1     0     0     0     6
       291.221845      177.011473      275.686777     1     0     0     0     7
       214.284053      421.046441      401.622292     1     0     0     0     3
        27.221068      175.540227      185.539458     1     0     0     0     4
        97.245559      447.839241      153.888230     1     0     0     0     5