ITEM: TIMESTEP
0
ITEM: NUMBER OF ATOMS
        7821
ITEM: BOX BOUNDS pp pp pp
  0.0000000E+00   500.000000000000     
  0.0000000E+00   500.000000000000     
  0.0000000E+00   500.000000000000     
ITEM: ATOMS x y z f1 f2 f3 f4 orient radius
       358.318316      267.487464      150.160128     1     0     0     0     1   1.560
       401.686546      259.099992       44.883919     1     0     0     0     1   1.560
       220.941264      331.966789      257.485241     1     0     0     0     5   1.560
        26.953058      277.325161      211.274062     1     0     0     0     3   1.560
       231.086536       96.872421      186.441602     1     0     0     0     2   1.560
       145.963624      296.647799       86.055074     1     0     0     0     6   1.560
       297.056054       81.655429      393.557140     1     0     0     0     1   1.560
       314.082627      232.476770      236.911173     1     0     0     0     2   1.560
        30.749684      148.238199      125.718994     1     0     0     0     4   1.560
       314.623258      129.254345      391.409854     1     0     0     0     3   1.560
        26.145849      138.764344      406.887542     1     0     0     0     5   1.560
       473.566769      435.456668        1.670010     1     0     0     0     2   1.560
        93.966313       32.986069      103.386618     1     0     0     0     6   1.560
       147.544871      231.806199      307.178951     1     0     0     0     2   1.560
       194.843503      186.112720      490.597734     1     0     0     0     2   1.560
        77.684674       62.182095      211.836890     1     0     0     0     1   1.560
       202.073181      160.510695      362.944258     1     0     0     0     5   1.560
       393.344622      211.742562       80.669727     1     0     0     0     5   1.560
       161.967260      202.524761      310.397629     1     0     0     0     5   1.560
       196.239872      356.308324      178.165102     1     0     0     0     3   1.560
         1.883613      330.500830      485.132522     1     0     0     0     1   1.560
        91.255645      320.754334      208.211561     1     0     0     0     6   1.560
       430.026186      276.044065      498.432430     1     0     0     0     7   1.560
       443.905504      434.032298      213.543826     1     0     0     0     1   1.560
       300.029150        1.060049      131.508727     1     0     0     0     7   1.560
        45.566326      364.063428        5.610848     1     0     0     0     5   1.560
        11.425496      290.703169      131.306383     1     0     0     0     8   1.560
        12.491126      288.621943      187.316682     1     0     0     0     2   1.560
       122.885686      407.271791      147.723724     1     0     0     0     3   1.560
       459.044395      412.430960      192.591883     1     0     0     0     5   1.560
       162.648005      270.142331      367.571566     1     0     0     0     3   1.560
       394.466842      399.983708      483.090609     1     0     0     0     7   1.560
       362.080268      311.786963      279.871463     1     0     0     0     4   1.560
       477.287929      452.221676      219.290270     1     0     0     0     4   1.560
       479.427638      101.371742      112.849384     1     0     0     0     2   1.560
       307.724661        7.029525      436.413311     1     0     0     0     4   1.560
       493.577334      406.383371      107.664227     1     0     0     0     3   1.560
       130.710093      414.783085      240.213646     1     0     0     0     3   1.560
       454.885616      122.508965       22.970554     1     0     0     0     6   1.560
        74.228153      316.550918      312.210155     1     0     0     0     1   1.560
       452.488201        7.047879      314.568029     1     0     0     0     8   1.560
       489.263798      113.898708      464.348853     1     0     0     0     5   1.560
        59.573117       18.736249       39.699662     1     0     0     0     7   1.560
       359.227138        7.282450      484.065143     1     0     0     0     5   1.560
       172.015851      103.909627      400.841703     1     0     0     0     4   1.560
        80.922245      434.843126      184.680048     1     0     0     0     2   1.560
       419.960712      168.211912      276.494928     1     0     0     0     5   1.560
       263.024435      383.543160      176.942950     1     0     0     0     4   1.560
        48.931180      315.897187        7.148633     1     0     0     0     1   1.560
       343.968483      189.970138      259.106845     1     0     0     0     7   1.560
       239.901951       88.398005      364.121549     1     0     0     0     7   1.560
       173.491972       77.744458      379.823265     1     0     0     0     2   1.560
       107.607232      180.542656      489.966949     1     0     0     0     7   1.560
       369.718696       36.237964       32.242599     1     0     0     0     4   1.560
       330.071360      174.629458      148.397068     1     0     0     0     7   1.560
        31.281408      479.652337      428.421493     1     0     0     0     5   1.560
        27.599585      420.526490       34.430304     1     0     0     0     1   1.560
       300.079310      269.650252      445.770289     1     0     0     0     1   1.560
       377.302483      410.112711      492.834062     1     0     0     0     6   1.560
       172.739986      169.169925      134.277673     1     0     0     0     8   1.560
       120.341581      391.150693      351.993283     1     0     0     0     5   1.560
       442.023583      476.947774      460.393534     1     0     0     0     3   1.560
       270.093004      482.436790      164.802766     1     0     0     0     6   1.560
       128.315110      304.241107       88.307768     1     0     0     0     2   1.560
       348.916080      482.107934      153.423358     1     0     0     0     7   1.560
       249.452298      200.567558       91.117707     1     0     0     0     1   1.560
       359.973387      314.891712      238.256436     1     0     0     0     2   1.560
       327.012898      251.030710      256.120763     1     0     0     0     3   1.560
       259.745466      228.469064      241.385873     1     0     0     0     5   1.560
        23.552561      219.609257      259.036757     1     0     0     0     8   1.560
        85.533431      352.008037       16.737442     1     0     0     0     6   1.560
       423.939113      392.381202      210.295330     1     0     0     0     1   1.560
        82.144979      108.926486      157.722358     1     0     0     0     6   1.560
       287.057773      101.851431      224.967048     1     0     0     0     2   1.560
        67.298636       88.321101      125.845338     1     0     0     0     3   1.560
       194.603934      405.005518      322.069362     1     0     0     0     4   1.560
        28.554062      306.463631       94.577782     1     0     0     0     1   1.560
       430.010767      223.358334      351.464221     1     0     0     0     1   1.560
       487.604901      111.896771      272.156958     1     0     0     0     1   1.560
       141.505062      339.216494      399.066393     1     0     0     0     2   1.560
       355.032505      438.453586      192.027390     1     0     0     0     6   1.560
       113.071446      372.719579       80.234789     1     0     0     0     3   1.560
       356.290271      143.582829      247.535533     1     0     0     0     3   1.560
       451.390374      221.066840      338.493755     1     0     0     0     6   1.560
        69.898297      246.074114      124.827239     1     0     0     0     8   1.560
       401.338993      271.608007       29.359630     1     0     0     0     8   1.560
       466.845796      202.787199      458.365080     1     0     0     0     7   1.560
       250.996059      428.934711      265.055724     1     0     0     0     4   1.560
       121.950808      403.116381      154.616172     1     0     0     0     4   1.560
       223.300086      371.463347       71.110147     1     0     0     0     1   1.560
       146.670572      193.454437      244.391910     1     0     0     0     5   1.560
       259.505703       56.547008       35.854045     1     0     0     0     6   1.560
       435.983808      303.794935       40.634389     1     0     0     0     7   1.560
       310.074748      447.061428       99.161854     1     0     0     0     1   1.560
       149.584116       12.416502      416.332171     1     0     0     0     3   1.560
        20.320487      123.314764      338.478693     1     0     0     0     2   1.560
       408.481411      119.183679      246.124517     1     0     0     0     8   1.560
       325.869712      286.459504      219.934612     1     0     0     0     3   1.560
       207.854041        3.647759      142.203821     1     0     0     0     7   1.560
       116.294548       92.521001      260.694230     1     0     0     0     6   1.560
       387.094349      364.056289      229.201468     1     0     0     0     1   1.560
       270.300378      205.129062       66.679916     1     0     0     0     8   1.560
       407.702191      420.012059      251.727641     1     0     0     0     1   1.560
       475.137036      337.980231       49.522353     1     0     0     0     3   1.560
        29.147401       72.931010      207.400535     1     0     0     0     5   1.560
        98.108705       57.035911      149.172952     1     0     0     0     4   1.560
       291.451794      223.404377      329.692003     1     0     0     0     6   1.560
       329.982784       28.450891      268.810406     1     0     0     0     7   1.560
       471.197329      276.506000      384.005678     1     0     0     0     1   1.560
       406.287463      177.426062      253.531839     1     0     0     0     4   1.560
       496.273601      112.212731      489.959929     1     0     0     0     5   1.560
       132.637672      423.025842      335.481544     1     0     0     0     7   1.560
        50.484968       52.722984        9.104156     1     0     0     0     7   1.560
       241.496617      156.399614       46.139470     1     0     0     0     5   1.560
        17.440639      464.000019      192.747734     1     0     0     0     8   1.560
        64.141678      287.048180      458.129202     1     0     0     0     3   1.560
         1.554953       50.229299      399.667883     1     0     0     0     2   1.560
       348.167920      443.497408      125.086350     1     0     0     0     2   1.560
       399.073622       21.850602      127.833257     1     0     0     0     5   1.560
        45.555701      139.705668      145.861673     1     0     0     0     8   1.560
        56.780352      146.889185       47.401563     1     0     0     0     6   1.560
       219.059389        0.649785      282.538302     1     0     0     0     7   1.560
       323.461306      400.354820      131.789288     1     0     0     0     3   1.560
       187.380206      163.095050      120.941990     1     0     0     0     5   1.560
       266.408343      348.507756      139.179912     1     0     0     0     8   1.560
        79.386833      473.551782      494.938909     1     0     0     0     7   1.560
       198.258097      341.906558      137.615532     1     0     0     0     4   1.560
        25.667175      403.914118      146.805660     1     0     0     0     7   1.560
        12.821599       36.860798       32.844310     1     0     0     0     5   1.560
        85.369672      205.124775      413.605195     1     0     0     0     8   1.560
       283.572253      135.282514      400.668162     1     0     0     0     5   1.560
       320.652305      119.866575      449.254004     1     0     0     0     3   1.560
       187.129926      276.485613      218.060074     1     0     0     0     5   1.560
        57.813091      136.189569       32.525968     1     0     0     0     3   1.560
       342.079678       57.395950      475.311053     1     0     0     0     1   1.560
       434.025771      439.756443      348.015010     1     0     0     0     4   1.560
       488.164670      273.743979       78.791938     1     0     0     0     8   1.560
       255.477607      472.615449      157.820907     1     0     0     0     6   1.560
       211.050349       24.972966      421.927635     1     0     0     0     1   1.560
       136.056922      494.358446       67.022489     1     0     0     0     1   1.560
       203.039655       83.371938      188.079374     1     0     0     0     1   1.560
       354.372586      365.631299      474.160049     1     0     0     0     8   1.560
       181.124614      415.455207      124.334130     1     0     0     0     1   1.560
       429.576760      242.629175      108.296827     1     0     0     0     1   1.560
       422.190979      278.710314      261.131932     1     0     0     0     3   1.560
       308.088684       44.053369      348.897808     1     0     0     0     8   1.560
        61.980598      121.508080      479.314562     1     0     0     0     4   1.560
       279.444463      454.261759       50.164139     1     0     0     0     5   1.560
       228.776552      406.438971      163.642845     1     0     0     0     7   1.560
       356.393013      383.341224      230.159572     1     0     0     0     8   1.560
       339.172022      380.754405       11.610373     1     0     0     0     4   1.560
       366.285351      162.945123      102.949182     1     0     0     0     6   1.560
        75.568805      453.073473      487.054459     1     0     0     0     5   1.560
       103.386426      275.370112      179.711594     1     0     0     0     5   1.560
        35.079070      379.783378       95.572650     1     0     0     0     3   1.560
       349.287354      321.597545      431.304081     1     0     0     0     3   1.560
       267.482004      256.820874       71.670487     1     0     0     0     1   1.560
       436.644496      368.764110      225.824591     1     0     0     0     6   1.560
        58.403474      301.582381      465.001772     1     0     0     0     4   1.560
       273.657396      435.870379      317.684566     1     0     0     0     1   1.560
        37.132761      338.022595      218.206144     1     0     0     0     7   1.560
       360.830312      152.878777       89.256322     1     0     0     0     6   1.560
       341.905160      307.975908      286.792398     1     0     0     0     1   1.560
       172.351736      304.872086       55.344915     1     0     0     0     7   1.560
       237.777723       25.470073      195.712292     1     0     0     0     3   1.560
       120.741560      208.287777      350.736273     1     0     0     0     8   1.560
       465.593519      201.381593      255.903982     1     0     0     0     5   1.560
       419.991218        0.088914       58.125422     1     0     0     0     5   1.560
        61.655929      302.149774      270.132302     1     0     0     0     2   1.560
       176.569578      226.448330      351.134396     1     0     0     0     5   1.560
       251.717326      379.348959       64.675099     1     0     0     0     7   1.560
       439.182297      236.165116      269.818996     1     0     0     0     1   1.560
       246.043142      342.361046      297.932425     1     0     0     0     1   1.560
       289.765040      342.460207      323.368969     1     0     0     0     3   1.560
       196.478266      234.792166      346.607374     1     0     0     0     4   1.560
       418.023338       79.727943       95.144353     1     0     0     0     8   1.560
       348.378679      231.905206      115.618588     1     0     0     0     5   1.560
        74.712357       37.278572      460.511919     1     0     0     0     7   1.560
        49.246401      346.482695      485.483422     1     0     0     0     8   1.560
         6.920600      121.610771      354.261245     1     0     0     0     2   1.560
       497.347460      254.357177       79.286699     1     0     0     0     3   1.560
        63.332250      206.914419      344.512510     1     0     0     0     7   1.560
       173.103980       20.548134      440.289551     1     0     0     0     1   1.560
       331.041070      338.335889      417.716198     1     0     0     0     8   1.560
       174.388035      488.186128      219.164297     1     0     0     0     2   1.560
       175.981230      214.537725      407.470533     1     0     0     0     8   1.560
        35.627053       50.582369       40.725420     1     0     0     0     7   1.560
       481.992787      262.400150      346.694425     1     0     0     0     2   1.560
       389.900097      200.997385       98.215816     1     0     0     0     2   1.560
       114.002056        5.792527       86.249871     1     0     0     0     8   1.560
       385.608617      394.180673       82.168537     1     0     0     0     7   1.560
       380.703119       76.920268       25.066244     1     0     0     0     7   1.560
       395.520744      334.461319      427.866954     1     0     0     0     1   1.560
       240.681020      467.724796       96.068340     1     0     0     0     1   1.560
        22.708135      140.858512       77.802588     1     0     0     0     4   1.560
       359.140560        3.194664      162.965952     1     0     0     0     3   1.560
       216.535113      127.057865      364.745591     1     0     0     0     7   1.560
       188.033736      305.883379      159.680424     1     0     0     0     3   1.560
       419.172259      308.974678      147.183909     1     0     0     0     1   1.560
       361.913778      492.180004       93.332754     1     0     0     0     2   1.560
       135.075165      284.454138      325.165445     1     0     0     0     4   1.560
        40.735840      302.942446      237.897435     1     0     0     0     4   1.560
       320.142325        7.793401      105.770030     1     0     0     0     8   1.560
       103.918676      372.440147       13.192072     1     0     0     0     4   1.560
       315.851681      333.965641      179.121161     1     0     0     0     8   1.560
        77.010270      194.034494      456.572768     1     0     0     0     8   1.560
       395.204757      493.299850      101.794650     1     0     0     0     5   1.560
       180.367210       50.821269      339.766147     1     0     0     0     7   1.560
       424.460603      240.268883      438.093253     1     0     0     0     6   1.560
       499.051271      183.452709      483.247136     1     0     0     0     8   1.560
       453.673261      304.970012      486.660706     1     0     0     0     5   1.560
       358.486658      247.179800      141.804829     1     0     0     0     1   1.560
       489.292269      396.702474      152.111009     1     0     0     0     2   1.560
       117.893409      314.295384      300.344260     1     0     0     0     5   1.560
       286.045507      415.222017      470.143572     1     0     0     0     4   1.560
       269.178848       55.805725      451.704896     1     0     0     0     3   1.560
       383.256557      315.881383      203.311766     1     0     0     0     2   1.560
        32.760902      106.987890      157.963603     1     0     0     0     5   1.560
       325.802142      449.429801      252.371605     1     0     0     0     4   1.560
       103.630189      344.121893      287.300822     1     0     0     0     4   1.560
       104.126288      389.180083      375.258200     1     0     0     0     7   1.560
       414.997830      326.750257       10.647629     1     0     0     0     4   1.560
        44.695281       81.112786      415.562019     1     0     0     0     8   1.560
       490.859349      402.004485      469.683260     1     0     0     0     8   1.560
       181.057500      470.355273      253.853941     1     0     0     0     8   1.560
       435.294727      399.566989      115.936690     1     0     0     0     7   1.560
       352.418133      188.194561       40.399856     1     0     0     0     8   1.560
        52.364054       97.065151      397.294200     1     0     0     0     8   1.560
       459.950785      370.013058      295.552437     1     0     0     0     3   1.560
       104.139791      347.400015      161.151602     1     0     0     0     7   1.560
       350.189724      203.450185      257.362450     1     0     0     0     5   1.560
       350.440994      158.903706      141.930985     1     0     0     0     5   1.560
        12.657187       76.913533       74.286808     1     0     0     0     7   1.560
       165.964741       31.883262      272.752412     1     0     0     0     2   1.560
       288.558651      309.917226      136.262799     1     0     0     0     1   1.560
        71.024459      112.391467      321.031131     1     0     0     0     1   1.560
       245.703622      439.593720       55.268665     1     0     0     0     1   1.560
       473.681456      161.963773       21.356862     1     0     0     0     7   1.560
       293.208915      146.290489      404.350736     1     0     0     0     3   1.560
       203.129208      180.087274      249.533795     1     0     0     0     4   1.560
        40.199928      431.865127      222.541461     1     0     0     0     4   1.560
       338.664873      189.068401      482.595794     1     0     0     0     3   1.560
        25.388807       32.234203      262.021074     1     0     0     0     7   1.560
       229.038832      371.247765      265.061471     1     0     0     0     5   1.560
       220.216972      407.009903       43.575384     1     0     0     0     6   1.560
       102.554767      329.396358      362.420931     1     0     0     0     7   1.560
       232.028861       67.524955      476.381170     1     0     0     0     4   1.560
       333.003955      143.127592      238.019548     1     0     0     0     7   1.560
       480.207829      389.301383      294.706903     1     0     0     0     5   1.560
        90.262532      188.848384       53.104724     1     0     0     0     4   1.560
       470.466737      376.240987       28.576491     1     0     0     0     2   1.560
       442.241217      480.524509      448.934197     1     0     0     0     6   1.560
       155.507891      321.524493      166.455020     1     0     0     0     5   1.560
       306.744799      235.793297      309.053766     1     0     0     0     6   1.560
       439.257025       88.093891      465.006250     1     0     0     0     8   1.560
       146.439581       97.646862      424.322969     1     0     0     0     5   1.560
       483.198187      275.107796       77.428121     1     0     0     0     6   1.560
       345.577421      190.323419      387.957205     1     0     0     0     4   1.560
       467.029345      206.449793      144.149535     1     0     0     0     4   1.560
       359.638752      401.966112       15.798346     1     0     0     0     2   1.560
        91.147563      163.618141      122.328383     1     0     0     0     6   1.560
       399.229569      109.637096      180.084705     1     0     0     0     1   1.560
        97.700755      359.950854       48.169666     1     0     0     0     3   1.560
        53.499945      141.621634      334.753973     1     0     0     0     8   1.560
       383.430641      377.045527      454.053760     1     0     0     0     8   1.560
       445.138371        4.199249      107.990851     1     0     0     0     2   1.560
       206.245150      342.962793      246.079773     1     0     0     0     2   1.560
       185.293614      423.157383       45.659625     1     0     0     0     6   1.560
       239.823933      206.043328      103.314909     1     0     0     0     5   1.560
       105.989493      175.205204       61.542435     1     0     0     0     3   1.560
       165.004315      486.599952      426.901351     1     0     0     0     6   1.560
        67.136717      461.557838      452.833887     1     0     0     0     5   1.560
       142.662375      101.673519       86.372509     1     0     0     0     1   1.560
       229.001174      126.377399      183.499553     1     0     0     0     6   1.560
        10.151219      207.709312      205.870035     1     0     0     0     5   1.560
       161.628828      444.709924       21.746738     1     0     0     0     6   1.560
       388.551771      489.965119       87.932388     1     0     0     0     8   1.560
       192.122399      480.509513      111.653658     1     0     0     0     7   1.560
       180.123315       68.139341      311.245171     1     0     0     0     2   1.560
       464.701717      403.261404      210.589615     1     0     0     0     1   1.560
       190.000539      129.385057      310.234300     1     0     0     0     8   1.560
       176.558401      448.641728        3.353685     1     0     0     0     8   1.560
       460.540134       88.386427      105.924718     1     0     0     0     1   1.560
       414.226734      205.775572      406.341334     1     0     0     0     5   1.560
       481.066166      458.623452       40.341394     1     0     0     0     2   1.560
        43.457377      266.308477      107.190701     1     0     0     0     3   1.560
        17.271946      412.507636      372.749288     1     0     0     0     7   1.560
       468.962266      224.719051       84.231230     1     0     0     0     4   1.560
       412.206368      164.797696      335.961736     1     0     0     0     8   1.560
       319.284450      203.523671      238.178474     1     0     0     0     8   1.560
       329.956328      150.918171      214.729610     1     0     0     0     6   1.560
       450.811912      212.438070       31.532024     1     0     0     0     7   1.560
       380.761068       50.815514      375.256196     1     0     0     0     7   1.560
        42.233555      427.671555       12.294522     1     0     0     0     1   1.560
       480.919710      352.699201      346.975007     1     0     0     0     7   1.560
       151.673000      331.457356      166.842809     1     0     0     0     8   1.560
        49.900925       42.916213      369.948393     1     0     0     0     7   1.560
       493.684810      159.689827       73.508256     1     0     0     0     7   1.560
       470.784666      312.014543      218.088636     1     0     0     0     5   1.560
       376.998743      482.766887      168.357765     1     0     0     0     5   1.560
       304.758573      217.841938      113.455374     1     0     0     0     5   1.560
       246.391338      188.777301       20.308452     1     0     0     0     8   1.560
       215.276178      246.933612       50.283819     1     0     0     0     5   1.560
       445.292663      233.410572       53.859619     1     0     0     0     1   1.560
       458.123365      435.035732      201.473002     1     0     0     0     2   1.560
       414.223375       34.810353      283.294274     1     0     0     0     5   1.560
       375.421670      484.360711      210.670491     1     0     0     0     7   1.560
       279.835241      108.679301      325.514579     1     0     0     0     3   1.560
        36.793649      149.210306      322.276720     1     0     0     0     4   1.560
       235.541130      116.568095      137.932988     1     0     0     0     4   1.560
       373.744811        3.892856      286.561352     1     0     0     0     7   1.560
       423.048615      100.412534      186.452859     1     0     0     0     7   1.560
       221.239660      397.832961      190.896793     1     0     0     0     7   1.560
       102.037603      104.482451       77.521224     1     0     0     0     8   1.560
       135.751606      182.873884      105.993882     1     0     0     0     5   1.560
         7.287758      422.393001      493.733618     1     0     0     0     8   1.560
       348.741180       39.667261      192.450144     1     0     0     0     3   1.560
       303.234936      443.576357      269.038304     1     0     0     0     6   1.560
        44.538209      163.615040      384.115070     1     0     0     0     7   1.560
       303.987113      182.354845      447.583604     1     0     0     0     8   1.560
       229.685931      125.890624      211.655287     1     0     0     0     3   1.560
       412.835469      301.060932      270.701620     1     0     0     0     6   1.560
       184.075422      208.943766      166.711892     1     0     0     0     1   1.560
       371.436675      196.685953      393.980690     1     0     0     0     7   1.560
       341.070278       71.141109      433.247025     1     0     0     0     6   1.560
       449.045003       87.738325       99.168302     1     0     0     0     5   1.560
       238.206131        0.076628       86.750865     1     0     0     0     5   1.560
       296.866867      219.719686      377.520073     1     0     0     0     5   1.560
       470.079231       69.197464      447.404566     1     0     0     0     1   1.560
       249.556207      223.148374        8.722424     1     0     0     0     7   1.560
        64.894147      403.511884      177.998665     1     0     0     0     2   1.560
       469.009278       73.215495      416.741629     1     0     0     0     1   1.560
       382.061317      401.029498      366.204064     1     0     0     0     7   1.560
       338.697969      105.965201      292.537726     1     0     0     0     2   1.560
       303.651626      144.463122      174.218387     1     0     0     0     3   1.560
       120.132862      457.311398      230.372035     1     0     0     0     5   1.560
        71.866702      317.113690      456.360397     1     0     0     0     2   1.560
       328.984759      460.204684       97.638516     1     0     0     0     7   1.560