ITEM: TIMESTEP
0
ITEM: NUMBER OF ATOMS
        7841
ITEM: BOX BOUNDS pp pp pp
  0.0000000E+00   500.000000000000     
  0.0000000E+00   500.000000000000     
  0.0000000E+00   500.000000000000     
ITEM: ATOMS x y z nV nH f3 f4 orient
       336.343779      381.594088      486.188185     1     0     0     0     4
       419.885614      490.533719      227.491285     1     0     0     0     3
        53.779138      119.407121      229.044318     1     0     0     0     6
        18.643118        2.172282      368.482328     1     0     0     0     5
       328.160220      225.323593      228.779576     1     0     0     0     3
       202.384001      441.682854      116.501456     1     0     0     0     7
       190.229915      439.106729       80.762294     1     0     0     0     3
       137.696808       81.157468       46.800947     1     0     0     0     3
        73.544851      138.054901      227.620920     1     0     0     0     4
       421.135082      238.966215      143.768771     1     0     0     0     8
       340.224188      377.068156      323.005601     1     0     0     0     6
       209.342955      419.153582      294.411015     1     0     0     0     8
        55.739312      166.018160      442.455424     1     0     0     0     8
       144.709092      487.950736      107.221647     1     0     0     0     7
       380.908845      337.603750      485.706679     1     0     0     0     1
       192.395540       48.209728      392.953659     1     0     0     0     1
        44.120124       76.716965      363.692325     1     0     0     0     5
       185.543941      147.890879      168.716542     1     0     0     0     1
       249.999874      231.817956       51.107403     1     0     0     0     5
       485.484449       50.712074       24.221936     1     0     0     0     6
       404.894995       42.721348      266.939220     1     0     0     0     8
       405.943272      301.708510      494.877936     1     0     0     0     3
       263.019540      265.870451      189.105853     1     0     0     0     8
       475.695758      353.952295      488.850567     1     0     0     0     3
       342.404237       44.360730      240.515711     1     0     0     0     8
       245.598487      272.127030      426.895385     1     0     0     0     6
       192.786721      370.586880        4.968990     1     0     0     0     8
       153.050352      305.038627       51.741753     1     0     0     0     1
        35.459549      389.756268      250.372031     1     0     0     0     5
       469.429820       93.680847      114.420960     1     0     0     0     8
        78.778642      254.482692      299.656611     1     0     0     0     2
        91.815737      242.913249       84.678496     1     0     0     0     8
       259.454810      356.027141      293.864592     1     0     0     0     7
         2.301860      372.513202       40.656440     1     0     0     0     7
       151.961307      278.308784       26.458348     1     0     0     0     8
       412.637574      213.714991      453.980545     1     0     0     0     6
       271.748942      241.943397      119.095946     1     0     0     0     1
       253.860037      304.797501      284.953147     1     0     0     0     8
       456.927678       12.713112      207.348376     1     0     0     0     6
       122.672078      292.606077      140.598395     1     0     0     0     5
       126.894911      369.681004      313.544405     1     0     0     0     1
       222.969868      110.865615       84.149157     1     0     0     0     3
       432.987352      432.962938      119.802187     1     0     0     0     2
        74.446764      440.142002      166.099105     1     0     0     0     6
        92.722801       90.484556      124.300405     1     0     0     0     4
       284.555206      397.317326      256.660658     1     0     0     0     6
       394.647377      268.980335      119.734740     1     0     0     0     5
       497.256942      417.092792      363.387369     1     0     0     0     2
       424.149864        4.609981       91.256840     1     0     0     0     5
       127.829551      382.451147      278.400889     1     0     0     0     2
       389.200725      127.759400       53.283164     1     0     0     0     5
       296.899015       89.054556      230.359849     1     0     0     0     3
       237.332974      146.812712      319.763103     1     0     0     0     5
       150.585504      336.703121      219.797767     1     0     0     0     4
       269.976114      289.327167      264.643629     1     0     0     0     8
       252.056297      450.872578       76.896295     1     0     0     0     3
       491.010159      159.113870      166.695922     1     0     0     0     1
       341.395747       56.311844      296.334671     1     0     0     0     2
       410.029925      137.415657      148.679023     1     0     0     0     8
       220.068748      177.620553      376.973794     1     0     0     0     2
        91.612970      446.925714      243.858903     1     0     0     0     5
       444.740902      300.855218      170.827467     1     0     0     0     8
       217.852523      395.245696      143.901227     1     0     0     0     4
       445.895311      393.182159      225.438968     1     0     0     0     6
       342.866002      141.075764       86.569617     1     0     0     0     1
       495.880866      489.589631      118.103457     1     0     0     0     8
       121.823734      134.808660      485.844888     1     0     0     0     1
       498.801115      215.332235      269.623638     1     0     0     0     5
       268.648068      311.119459      113.188265     1     0     0     0     3
       459.075019      284.254749       11.216765     1     0     0     0     6
        72.714813      488.866732      335.038700     1     0     0     0     8
       362.302909       48.721842      416.049033     1     0     0     0     6
       220.631721      136.583408      237.873144     1     0     0     0     1
       289.514557      389.182521      100.542590     1     0     0     0     4
       290.141891      324.359641      389.841747     1     0     0     0     5
        75.094366      478.296154      467.769705     1     0     0     0     7
       255.368098       67.219355      229.972853     1     0     0     0     1
       379.890490      324.876471       45.921415     1     0     0     0     3
        38.319345      161.764557       24.053090     1     0     0     0     5
       282.477187      411.903369      359.566228     1     0     0     0     4
       140.702962      295.099899      389.100727     1     0     0     0     1
       413.154205      467.330124      464.293982     1     0     0     0     6
       206.493911      433.221929      259.048454     1     0     0     0     7
       231.663444      146.195307      165.566568     1     0     0     0     5
       326.513097        0.097116       30.540416     1     0     0     0     7
       348.509658      324.948587      189.357324     1     0     0     0     5
        18.649576      156.202631      277.032041     1     0     0     0     4
       151.920545      429.886389      268.935300     1     0     0     0     2
       178.253697      240.570868      384.321414     1     0     0     0     6
       216.919679       37.923853      312.532454     1     0     0     0     7
       166.358475        6.150003      397.971796     1     0     0     0     2
       319.875816      376.880032       75.173022     1     0     0     0     2
       133.350412       14.615661      273.866556     1     0     0     0     6
       419.778259       70.390361      423.049150     1     0     0     0     6
        59.734324      213.142937      104.166882     1     0     0     0     7
        89.955534       25.057694      487.967410     1     0     0     0     4
        58.562665        5.999472       85.836521     1     0     0     0     6
       467.578014      218.594190       92.149034     1     0     0     0     5
       102.566117      489.591855      399.783696     1     0     0     0     1
       244.961821       13.503653      364.476481     1     0     0     0     4
       309.563393      171.112667       42.829622     1     0     0     0     1
       103.013218      177.006963      164.371139     1     0     0     0     8
       314.497604      485.585056      155.225338     1     0     0     0     8
        58.688719      326.034251      130.847595     1     0     0     0     3
       424.983549      196.200627      130.237619     1     0     0     0     2
       464.914606      421.776202      456.183539     1     0     0     0     8
       476.319080      307.568031       93.543614     1     0     0     0     7
       495.627758      450.966729      402.280019     1     0     0     0     1
       108.816697      258.922678      393.611625     1     0     0     0     4
       173.001027      217.131986      343.280511     1     0     0     0     5
       118.388786      288.433172      459.629767     1     0     0     0     6
       478.369879      111.522182      132.929875     1     0     0     0     1
       361.526052      215.503091      293.361189     1     0     0     0     8
        86.743834      363.723418      324.563349     1     0     0     0     3
       397.382558      353.058361      478.556241     1     0     0     0     8
       169.174796      482.218897      393.572446     1     0     0     0     1
        43.700082      369.247814      440.267596     1     0     0     0     7
       260.065042      388.783244      107.232560     1     0     0     0     4
       427.855785      481.475761      491.063025     1     0     0     0     1
       235.771130        1.000468      444.227662     1     0     0     0     4
       274.080592      149.315169      409.981528     1     0     0     0     8
       250.697000      453.382948      306.216673     1     0     0     0     8
        53.937022      145.846802      118.037744     1     0     0     0     7
       226.433439       71.576345      215.370816     1     0     0     0     5
       349.373820      116.161949      198.026885     1     0     0     0     5
       319.339154      147.138344      342.830741     1     0     0     0     3
       260.914519      121.470069      221.597240     1     0     0     0     4
       112.530997      132.441815      138.062779     1     0     0     0     8
       364.984682      382.673205      340.414789     1     0     0     0     6
        51.987704       32.805986       44.137493     1     0     0     0     3
       239.885511      291.241294       50.135444     1     0     0     0     4
       339.111505      130.788437      392.988076     1     0     0     0     6
        18.400492      274.934700      359.114864     1     0     0     0     7
       304.777026      464.266916       48.507337     1     0     0     0     2
       335.453189      285.157406      459.225288     1     0     0     0     8
       475.795955      395.145499      478.312155     1     0     0     0     6
       292.318859      104.928911      144.614214     1     0     0     0     2
       305.722015      462.106192       25.225484     1     0     0     0     2
       275.029832      270.412864       40.797641     1     0     0     0     8
       346.007653      166.859816       43.492590     1     0     0     0     5
       304.456819      136.774093      424.848627     1     0     0     0     8
        90.786500       54.909357      306.594327     1     0     0     0     3
       386.268203      113.432428      233.523357     1     0     0     0     5
       344.963313      375.906433      341.059281     1     0     0     0     1
       494.155227      271.673336      406.289188     1     0     0     0     4
        32.644314      350.636665      488.054389     1     0     0     0     1
       374.505795      281.922204      150.258007     1     0     0     0     5
       165.506380      412.295665      351.887582     1     0     0     0     7
       328.123680      304.849057      164.366702     1     0     0     0     6
        75.788381      421.883411      310.056495     1     0     0     0     3
       474.564778      293.765923      251.916619     1     0     0     0     7
       351.788456      168.841138      325.580231     1     0     0     0     4
       354.587342      455.973796       44.552952     1     0     0     0     3
       122.158324      207.704463      489.572149     1     0     0     0     2
       118.524579      222.753624      104.500460     1     0     0     0     5
       368.879518        2.381008       40.950926     1     0     0     0     3
       463.678830       43.549578      375.498022     1     0     0     0     8
       355.117719      320.340314       43.545241     1     0     0     0     1
       283.408038      188.879589      193.778650     1     0     0     0     3
       188.065817      370.308508      292.686327     1     0     0     0     7
        11.280009      128.814091      492.679145     1     0     0     0     4
       495.407250      226.255887       42.290907     1     0     0     0     8
       113.258810       20.915570      357.911638     1     0     0     0     8
       113.367699      258.996232      462.100078     1     0     0     0     2
        27.324515      125.430183      495.625537     1     0     0     0     6
       184.156027      357.019273       71.598932     1     0     0     0     6
       194.356049       59.465852      226.537250     1     0     0     0     2
       467.507231      158.567012      264.301588     1     0     0     0     3
        10.145901      364.806861      463.712858     1     0     0     0     3
       457.993220      223.783964      420.117889     1     0     0     0     1
       250.266343      203.105018      270.719425     1     0     0     0     7
       498.463771      132.095485       96.037919     1     0     0     0     8
       310.284285      383.017395      281.213320     1     0     0     0     2
        10.582956      444.023931      175.898072     1     0     0     0     2
       154.853486       21.239715      349.419492     1     0     0     0     4
       223.464810      431.371722      286.508640     1     0     0     0     6
       135.422821      281.141543      179.643349     1     0     0     0     4
       221.068594       31.337039       80.968682     1     0     0     0     3
       148.081854      270.317833       39.188847     1     0     0     0     1
        86.550592      427.356523      272.205699     1     0     0     0     1
       276.927369       32.464320      421.393376     1     0     0     0     5
       340.088570      399.441906      269.474058     1     0     0     0     4
       124.438775       96.945499      232.856805     1     0     0     0     3
         1.256089      435.988024      208.637396     1     0     0     0     6
        57.332421      441.944605      153.536426     1     0     0     0     4
        52.271881      475.559298      113.114621     1     0     0     0     1
       200.144008      162.870615      276.513039     1     0     0     0     7
       183.378085      270.311735      396.163620     1     0     0     0     5
       478.729683      112.492184      460.001582     1     0     0     0     6
       146.745437       97.159908      470.118435     1     0     0     0     5
        17.550469       64.793978      306.549470     1     0     0     0     1
       491.182777      384.049334       27.293809     1     0     0     0     4
       276.543645       38.467293      213.938689     1     0     0     0     8
       115.764114      456.129170       33.942741     1     0     0     0     7
       308.243223      439.766695      455.790094     1     0     0     0     7
       328.366644      110.355237      330.001816     1     0     0     0     6
        30.141676      417.478615      168.303299     1     0     0     0     3
       474.320595       37.888747      115.510211     1     0     0     0     3
       393.027398      359.408949       39.319431     1     0     0     0     6
       190.279450      447.617109      255.341518     1     0     0     0     1
       270.163932      479.884585      364.454398     1     0     0     0     4
       373.089403       91.927036      271.453943     1     0     0     0     1
        43.221241       57.695810      226.227840     1     0     0     0     4
       320.885083      415.525640      155.791919     1     0     0     0     3
        36.030508       76.491473      371.704287     1     0     0     0     3
       226.462746      376.235873      358.057812     1     0     0     0     2
       487.845928       68.133019      487.935612     1     0     0     0     4
       364.381409      133.953803      451.144362     1     0     0     0     6
       153.996247      415.885479       10.221166     1     0     0     0     1
       144.968336      303.315253      111.925194     1     0     0     0     4
       321.138129        6.497319       84.882583     1     0     0     0     4
        45.222775      437.159522      107.526786     1     0     0     0     8
       168.853661       65.759752      472.598054     1     0     0     0     5
        94.650537      309.461809      253.042056     1     0     0     0     5
       130.470787       18.890689      342.317572     1     0     0     0     6
       398.672957      469.744755      445.875147     1     0     0     0     6
        27.195285      429.920455      142.763344     1     0     0     0     8
        31.247523       76.875688      381.316530     1     0     0     0     6
       384.936091        2.542196      432.499632     1     0     0     0     6
       443.375731       45.267791       84.321158     1     0     0     0     2
        59.855471      314.978810      303.593432     1     0     0     0     5
       252.074904      320.457899      414.328193     1     0     0     0     1
       157.458681       46.105939      107.541859     1     0     0     0     5
       285.135305      422.622588      397.830355     1     0     0     0     4
       178.846170      260.441901      175.710586     1     0     0     0     6
       288.590581       34.494355      287.148474     1     0     0     0     7
       112.012006      209.911575      275.908827     1     0     0     0     4
       158.311882      273.507325      430.476024     1     0     0     0     2
       159.130083      469.268060      330.877284     1     0     0     0     6
       482.873641      257.421531      346.797447     1     0     0     0     2
       230.799227       79.079534      199.755024     1     0     0     0     1
        58.295159      131.810423      206.765143     1     0     0     0     8
       457.519897      377.484773      470.534310     1     0     0     0     2
       388.377490      174.836893      386.749183     1     0     0     0     2
       470.310960      172.187818       65.751328     1     0     0     0     4
       224.067911       33.056238      185.978111     1     0     0     0     6
       457.698396      164.011109      233.690955     1     0     0     0     1
         0.659577      195.789553      468.738436     1     0     0     0     2
        78.090371      223.313230       80.325534     1     0     0     0     5
        38.764476       43.337714      212.372176     1     0     0     0     3
        23.183083      451.329920      281.259630     1     0     0     0     3
        83.995394       29.504396       86.541717     1     0     0     0     2
       448.560397      331.758252       73.956314     1     0     0     0     3
       152.688082      216.297265      377.076169     1     0     0     0     5
       270.183918      494.280141      250.824876     1     0     0     0     5
       136.561185       40.967537       73.456492     1     0     0     0     2
        62.631457       66.609757      283.889214     1     0     0     0     3
        62.075997       24.964971      141.821572     1     0     0     0     7
         6.284177      125.149254      387.911360     1     0     0     0     1
       272.230608      406.041968      233.073741     1     0     0     0     1
       240.402697      314.167768      194.274546     1     0     0     0     8
       454.826211      278.659083      478.407719     1     0     0     0     5
       402.075051      305.608150       38.742137     1     0     0     0     7
        12.951920      462.929490      129.027479     1     0     0     0     1
       118.208281      152.203994      492.008447     1     0     0     0     7
       395.697083      342.817783      319.395167     1     0     0     0     4
       261.990477       30.537780       68.778195     1     0     0     0     6
        82.940269      387.611530      136.603757     1     0     0     0     3
        45.436203      393.085554      236.467792     1     0     0     0     3
       301.619687      489.528740      126.211609     1     0     0     0     5
       452.606763       95.307214      137.960037     1     0     0     0     6
       188.850343      484.116057      239.742675     1     0     0     0     5
         9.194820      107.010800      226.330584     1     0     0     0     6
       405.803759      323.195733      277.941747     1     0     0     0     7
       184.696415       29.703978      393.015202     1     0     0     0     2
       207.113922       69.018812       64.192045     1     0     0     0     1
       280.075032       79.135736      264.976104     1     0     0     0     2
       383.866788      267.389505      267.272337     1     0     0     0     6
        53.381396      282.919067      156.066203     1     0     0     0     3
       169.912366      347.582102      211.079279     1     0     0     0     6
        62.511551      239.294990        6.923448     1     0     0     0     1
       210.975855       65.905521      156.674460     1     0     0     0     8
       173.770860       74.974482      262.860949     1     0     0     0     8
       385.814855      218.627325      157.593210     1     0     0     0     5
       331.902581      440.723422      451.053399     1     0     0     0     2
       455.279595      100.292929       47.806390     1     0     0     0     6
       432.013675        8.046619      254.287552     1     0     0     0     7
         5.166764      245.711947        8.085863     1     0     0     0     3
       477.693102      448.641755      110.656126     1     0     0     0     4
       436.549746      216.779117      292.458354     1     0     0     0     4
       403.496493       39.703859      321.437249     1     0     0     0     2
       463.054203      229.490291      349.933649     1     0     0     0     2
        64.388356      131.773629      131.690978     1     0     0     0     5
        55.981595      346.827041      290.983370     1     0     0     0     5
       391.246670      397.522696      116.889691     1     0     0     0     6
       106.805528      325.709168      345.188241     1     0     0     0     6
       409.914917      497.743787      352.663774     1     0     0     0     7
       454.577603      130.692865      412.297926     1     0     0     0     1
        81.249699       72.992783      333.347402     1     0     0     0     7
       311.744096       75.710103      405.878412     1     0     0     0     8
       396.307102      316.203934      361.529298     1     0     0     0     8
       187.143827      266.607891      233.918796     1     0     0     0     1
       400.439684       11.704666      359.331256     1     0     0     0     5
       149.251559      229.605922      133.593977     1     0     0     0     3
       464.263633      419.767685      109.023897     1     0     0     0     4
       164.755713      208.711538      371.559432     1     0     0     0     4
       238.415986      352.815839      378.431731     1     0     0     0     2
       367.947997      163.585526       47.195418     1     0     0     0     2
       331.301897      350.664478      483.095512     1     0     0     0     3
       171.414571      181.149479       21.447895     1     0     0     0     8
        12.079362      494.588218      328.900145     1     0     0     0     4
       282.690672      426.719384       30.453444     1     0     0     0     4
       364.671302      495.926497      428.416513     1     0     0     0     3
       173.880336       48.403773      237.394490     1     0     0     0     6
       408.090810      420.902633      177.020070     1     0     0     0     6
       453.454607      490.767824      489.095930     1     0     0     0     5
       112.699220      171.710675      484.175067     1     0     0     0     1
       101.628900      201.547114      111.469537     1     0     0     0     3
       382.287375      358.798574      102.111577     1     0     0     0     1
       196.902991      282.860480      214.199462     1     0     0     0     8
       330.303868      192.403884      289.634449     1     0     0     0     5
       301.792546      123.887388      303.419173     1     0     0     0     5
       294.145500      174.827791      370.114714     1     0     0     0     4
       494.394067      130.408765      166.477164     1     0     0     0     8
       344.620745      398.433493      405.134496     1     0     0     0     3
       194.204255      427.774398      482.344276     1     0     0     0     4
        88.920894      347.809152      173.043556     1     0     0     0     2
        78.521541       14.765764      299.459692     1     0     0     0     3
       120.742228       22.581414      408.378269     1     0     0     0     1
       149.461044      195.238124       42.422441     1     0     0     0     8
        10.028515       21.323411      483.879598     1     0     0     0     6
       352.612471       43.562366        8.993771     1     0     0     0     1
       477.331166      110.858476      234.890511     1     0     0     0     6
       259.978013      294.150582      485.812643     1     0     0     0     8
       181.227979      144.827800      276.808314     1     0     0     0     3
       447.739455      426.788523      459.801494     1     0     0     0     3
       427.104181      363.536803      148.526005     1     0     0     0     6
        88.790696       61.250630       86.678897     1     0     0     0     1
       259.788474      292.610112      418.214127     1     0     0     0     5
       405.922684      440.630422      151.620220     1     0     0     0     6
       181.866978      467.789289       42.689805     1     0     0     0     5
       245.117158      405.325867      104.593468     1     0     0     0     6
       212.216754      375.410920       25.582010     1     0     0     0     2
       142.639550      364.193615      188.149425     1     0     0     0     2
       417.755786      170.455220      133.837682     1     0     0     0     6
       186.146877       70.367118      373.511486     1     0     0     0     4
       227.547036      327.118392      244.808780     1     0     0     0     4
       430.691459       23.906852      354.822570     1     0     0     0     8
       107.232337      433.467224      376.911447     1     0     0     0     7
       270.002007       36.867294      263.769113     1     0     0     0     7
       113.303232      105.159997      301.278974     1     0     0     0     3
       420.988591       61.753115      154.250392     1     0     0     0     7
       121.413342      234.611825      250.801518     1     0     0     0     5
       147.384392      379.895547      394.181361     1     0     0     0     1
        19.416494       82.180510      128.367866     1     0     0     0     4
       250.386677      467.617320      265.355853     1     0     0     0     5
       419.539108      244.349710      113.347218     1     0     0     0     7
       468.690891      406.401280      329.609885     1     0     0     0     3
       370.418349       63.675266        0.159464     1     0     0     0     4
       465.272186      278.371630      449.967657     1     0     0     0     4
       182.149225      378.871885      307.676228     1     0     0     0     5
       358.319473      164.882632      231.694108     1     0     0     0     3
       325.205714      331.895723      297.382931     1     0     0     0     1
       153.241684      424.380443       30.854521     1     0     0     0     2
       254.113676      140.564059      268.487660     1     0     0     0     3
       225.727377      224.242769      313.611490     1     0     0     0     1
       410.473739      318.238008      376.140547     1     0     0     0     7
       443.197990      270.823373      164.466641     1     0     0     0     5
       191.335889      214.581468      145.922149     1     0     0     0     3
       347.846526      195.875994      376.899732     1     0     0     0     5
        53.710120      353.961456       42.293779     1     0     0     0     1
       168.647913       47.006830        1.059838     1     0     0     0     3
       396.613085      217.655077      390.616284     1     0     0     0     3
        64.702909      204.071646      453.255062     1     0     0     0     3
       319.361844        4.441464      212.867751     1     0     0     0     8
       465.270115        9.627848      124.137744     1     0     0     0     8
       430.303105       26.007605        5.015752     1     0     0     0     7
       226.273552      290.551061       66.952525     1     0     0     0     7
       267.146608      159.950495      138.000769     1     0     0     0     8
        35.643543      345.222398      112.244359     1     0     0     0     1
       491.808543      272.655104       22.959888     1     0     0     0     6
       340.265879      158.847597      205.936081     1     0     0     0     8