ITEM: TIMESTEP
0
ITEM: NUMBER OF ATOMS
        7767
ITEM: BOX BOUNDS pp pp pp
  0.0000000E+00   500.000000000000     
  0.0000000E+00   500.000000000000     
  0.0000000E+00   500.000000000000     
ITEM: ATOMS x y z f1 f2 f3 f4 orient radius
       271.194661      329.453047      235.867892     1     0     0     0     5   1.560
       150.943939      336.728229      467.206575     1     0     0     0     4   1.560
       366.686376      212.803482      415.630517     1     0     0     0     3   1.560
        20.155010      309.281794      494.063067     1     0     0     0     8   1.560
       343.477707      236.142632      183.843441     1     0     0     0     1   1.560
       167.372410      455.614376       34.351909     1     0     0     0     3   1.560
       246.927428      339.057746      163.928044     1     0     0     0     5   1.560
       240.510308       71.954471       43.952331     1     0     0     0     7   1.560
       413.287855       65.161742      419.427680     1     0     0     0     2   1.560
       360.008367      223.843801      440.444789     1     0     0     0     2   1.560
       113.919397       76.793012      295.746921     1     0     0     0     2   1.560
         5.974751      103.282170      478.419029     1     0     0     0     3   1.560
       383.020706       32.565803      105.509376     1     0     0     0     3   1.560
       212.333344       92.114616      243.009510     1     0     0     0     3   1.560
        12.210358      496.951577      111.709303     1     0     0     0     5   1.560
       248.019482      393.573529      326.222589     1     0     0     0     5   1.560
       427.760632      323.520850      187.570271     1     0     0     0     5   1.560
        16.902404      133.912616      482.100503     1     0     0     0     3   1.560
       490.973829       67.652453      477.474129     1     0     0     0     7   1.560
       463.291445      185.939560        3.177533     1     0     0     0     5   1.560
       139.727672       97.607400      388.043956     1     0     0     0     7   1.560
       172.890979      345.591656      337.749208     1     0     0     0     8   1.560
        17.349732       11.122295      144.756505     1     0     0     0     8   1.560
        98.312078      272.320097      302.640983     1     0     0     0     2   1.560
       452.832000      160.378368      126.602992     1     0     0     0     6   1.560
       170.548562      232.810509      156.668822     1     0     0     0     1   1.560
       141.106287       44.701695      470.669295     1     0     0     0     4   1.560
       479.612482      253.711633      262.821964     1     0     0     0     2   1.560
        70.904566      344.060039        9.535448     1     0     0     0     3   1.560
       399.683726       41.647739      223.075627     1     0     0     0     5   1.560
        74.381974      394.235821      352.220318     1     0     0     0     2   1.560
       192.846137      203.800956      312.940115     1     0     0     0     7   1.560
       281.211867      150.188326       29.040602     1     0     0     0     3   1.560
       126.686676      124.289453      471.636681     1     0     0     0     7   1.560
       437.000404      141.907807      352.675444     1     0     0     0     8   1.560
        72.711444      315.155750      216.403774     1     0     0     0     6   1.560
       243.418331      290.995408      315.229998     1     0     0     0     2   1.560
       162.865413      459.141064      444.798396     1     0     0     0     4   1.560
       331.501018       72.615084       45.035269     1     0     0     0     7   1.560
       168.208369      149.074575      499.989578     1     0     0     0     7   1.560
       444.938877       38.778346      444.158802     1     0     0     0     1   1.560
        26.426520      324.266104      286.913175     1     0     0     0     5   1.560
       149.654356      282.250474      237.491414     1     0     0     0     7   1.560
        79.337347      448.382450      319.850373     1     0     0     0     8   1.560
       449.392957      275.470003      189.699858     1     0     0     0     5   1.560
       319.051486      480.203913      203.245670     1     0     0     0     5   1.560
        90.152978      192.781720      253.086955     1     0     0     0     8   1.560
       176.217633      127.394475      148.692474     1     0     0     0     1   1.560
       132.539503       46.959135        7.697141     1     0     0     0     1   1.560
       303.988409      141.977334      178.000799     1     0     0     0     2   1.560
       411.604129      173.766718       35.703943     1     0     0     0     7   1.560
       125.676749      497.684774      310.172016     1     0     0     0     8   1.560
       451.276373       11.304839      122.048850     1     0     0     0     6   1.560
       413.567926       61.186568       84.190759     1     0     0     0     1   1.560
       422.998878      450.742585      232.182037     1     0     0     0     2   1.560
       385.725705      304.782041      216.321969     1     0     0     0     4   1.560
       250.358809      318.374416      367.712426     1     0     0     0     5   1.560
        96.583113      377.752885      377.832456     1     0     0     0     6   1.560
       469.407693       26.921340      236.832085     1     0     0     0     4   1.560
       443.809933      258.056401       74.730408     1     0     0     0     7   1.560
       419.910541      413.670534      167.028312     1     0     0     0     7   1.560
       227.778113       23.037383      194.492455     1     0     0     0     7   1.560
       118.296515       48.958629      304.729886     1     0     0     0     3   1.560
       437.061428      170.944363      351.219774     1     0     0     0     5   1.560
       420.153538      161.923225      476.391944     1     0     0     0     3   1.560
        62.092365       60.226802       99.315065     1     0     0     0     5   1.560
       248.400034      316.880978      467.973449     1     0     0     0     3   1.560
       104.240166      141.899586      416.588557     1     0     0     0     7   1.560
       210.307747      263.875993      236.292923     1     0     0     0     8   1.560
       457.059751      253.165750      453.781404     1     0     0     0     8   1.560
        94.757744      130.805675       50.855575     1     0     0     0     7   1.560
         2.525521      433.735256      109.192375     1     0     0     0     7   1.560
        13.162722      495.606916      242.160677     1     0     0     0     6   1.560
       411.755428       51.378485      369.623666     1     0     0     0     3   1.560
       261.609855      355.741314      491.885368     1     0     0     0     7   1.560
       140.643414      168.671250      447.793861     1     0     0     0     8   1.560
       143.631951      346.230999      274.430710     1     0     0     0     5   1.560
       206.934037      234.329830      253.378639     1     0     0     0     5   1.560
        38.923970      161.645723       84.986793     1     0     0     0     2   1.560
       452.389844       33.880453      224.216445     1     0     0     0     2   1.560
       342.270456       42.217414       58.510055     1     0     0     0     8   1.560
       209.769449      428.129359      245.713678     1     0     0     0     8   1.560
        49.988721      262.201417      162.473368     1     0     0     0     4   1.560
        23.837679      441.363531      185.715941     1     0     0     0     3   1.560
       339.816968      175.032670      479.502962     1     0     0     0     2   1.560
         4.556013      221.114270      444.340688     1     0     0     0     5   1.560
       247.885281       69.606481       29.633826     1     0     0     0     2   1.560
       211.962083      312.759506      149.174377     1     0     0     0     4   1.560
       327.211152      248.533940      307.059315     1     0     0     0     5   1.560
       308.677399      387.656061      375.201737     1     0     0     0     2   1.560
       363.186897       78.660706      346.547059     1     0     0     0     1   1.560
       242.314408      477.188186      188.312435     1     0     0     0     2   1.560
       409.308268      391.127441      379.612304     1     0     0     0     3   1.560
       122.680408      241.795688      255.551055     1     0     0     0     2   1.560
       468.242670      121.588644      251.529693     1     0     0     0     3   1.560
       375.704007      356.736599      162.139756     1     0     0     0     1   1.560
       363.561208        0.385516       82.353047     1     0     0     0     3   1.560
       458.410583       51.550368      432.624493     1     0     0     0     5   1.560
       312.932989      132.587495      293.370230     1     0     0     0     7   1.560
       470.259443      434.747838       94.996934     1     0     0     0     6   1.560
       467.219455      464.881829      389.146847     1     0     0     0     1   1.560
       111.496618      410.055603      392.261808     1     0     0     0     4   1.560
        71.478672      474.343147      371.299825     1     0     0     0     2   1.560
       410.530710       26.118330      453.182290     1     0     0     0     1   1.560
       118.184484      335.270261      115.729792     1     0     0     0     4   1.560
       460.219728      129.255788       47.506334     1     0     0     0     8   1.560
       219.053674      225.441961       13.383426     1     0     0     0     5   1.560
       266.522426      136.270369      436.328205     1     0     0     0     6   1.560
       357.586050      470.442202      404.211070     1     0     0     0     1   1.560
       426.335321      141.113083      433.706036     1     0     0     0     7   1.560
       216.138259      268.495493      157.381140     1     0     0     0     2   1.560
       117.921152       53.145907       60.672471     1     0     0     0     2   1.560
       330.513330      315.712676      372.425445     1     0     0     0     6   1.560
       276.748818      476.925169        4.629970     1     0     0     0     3   1.560
       468.889747      278.134677      334.850778     1     0     0     0     2   1.560
        21.342771       96.785619      433.594447     1     0     0     0     8   1.560
       342.360813      110.850506      336.815116     1     0     0     0     6   1.560
       440.013814      168.493596      317.815621     1     0     0     0     5   1.560
        77.890009       22.761947        3.407599     1     0     0     0     5   1.560
       175.576177       44.029912      131.539292     1     0     0     0     6   1.560
       198.043017      330.159484       60.472225     1     0     0     0     4   1.560
       231.967264      429.242870       32.592583     1     0     0     0     6   1.560
       123.244623      226.029994      354.092893     1     0     0     0     7   1.560
       268.870223      416.029665      263.260216     1     0     0     0     6   1.560
       327.971729       19.304205      216.367446     1     0     0     0     7   1.560
       387.152673      208.274521      409.460374     1     0     0     0     1   1.560
       315.839771       42.274309      172.382641     1     0     0     0     3   1.560
       321.013600      442.784221      492.832920     1     0     0     0     3   1.560
       127.661689      229.554469      150.902910     1     0     0     0     4   1.560
       489.927442      292.152475      484.204949     1     0     0     0     1   1.560
       127.939090        1.964447      143.379229     1     0     0     0     3   1.560
       281.075736       43.720339      249.297459     1     0     0     0     1   1.560
       358.842041      311.745975      309.200905     1     0     0     0     3   1.560
       337.357007      375.464400      459.338911     1     0     0     0     3   1.560
       181.609602      480.994471      272.361395     1     0     0     0     7   1.560
       138.736895       45.188081      455.224086     1     0     0     0     7   1.560
       103.515913      405.491889      201.463571     1     0     0     0     8   1.560
       480.770508      164.539944      128.728854     1     0     0     0     8   1.560
       323.641265      123.799598      483.075763     1     0     0     0     5   1.560
        30.006687      455.348391       41.222293     1     0     0     0     4   1.560
        35.888443       38.939669       34.375870     1     0     0     0     3   1.560
       105.185554      352.102271      289.299209     1     0     0     0     1   1.560
        82.162391      397.491605      429.343262     1     0     0     0     1   1.560
       188.806757      470.563543       55.017731     1     0     0     0     2   1.560
       376.765964       15.666950      111.583778     1     0     0     0     3   1.560
       251.572755      318.488925      150.774186     1     0     0     0     7   1.560
       395.083026      378.495253      370.906711     1     0     0     0     6   1.560
        27.569316      347.888106      121.212296     1     0     0     0     4   1.560
        11.774951      115.152792      197.273513     1     0     0     0     4   1.560
       470.606411       73.004168      314.409072     1     0     0     0     1   1.560
       451.297608      317.464964       44.014250     1     0     0     0     5   1.560
       332.750318      466.038101      401.537399     1     0     0     0     7   1.560
        73.010260      200.094069       96.652771     1     0     0     0     1   1.560
       486.919377       98.319945      408.744763     1     0     0     0     4   1.560
       215.028855      427.422772      427.078711     1     0     0     0     2   1.560
       490.275497       63.450874      380.387203     1     0     0     0     3   1.560
       156.578145      172.162716      465.730884     1     0     0     0     3   1.560
       247.169374       36.856820      305.032412     1     0     0     0     6   1.560
       149.167903      373.161671       84.424941     1     0     0     0     3   1.560
        88.870177      355.333289      499.393187     1     0     0     0     2   1.560
       486.848030      357.703769      278.412522     1     0     0     0     5   1.560
       232.115679       50.739467      328.155214     1     0     0     0     3   1.560
        87.174862      117.766533      138.700368     1     0     0     0     6   1.560
       374.194559      364.405505       99.824805     1     0     0     0     7   1.560
       425.590606      466.811774      438.871301     1     0     0     0     6   1.560
       470.117099      457.646043      438.194148     1     0     0     0     4   1.560
       258.599169      198.071964       26.098086     1     0     0     0     7   1.560
       311.310605      147.406109      104.637491     1     0     0     0     2   1.560
       254.307958      354.306857      252.191226     1     0     0     0     7   1.560
       164.870525      403.500625      127.363091     1     0     0     0     6   1.560
       165.749218      137.115044      141.622584     1     0     0     0     6   1.560
       335.573452      235.023929       95.357101     1     0     0     0     2   1.560
       468.020466      327.737006       14.147725     1     0     0     0     4   1.560
       165.526048      439.616966      184.001313     1     0     0     0     6   1.560
       250.835097       65.839117      475.967815     1     0     0     0     8   1.560
       106.394422      177.295248      337.057775     1     0     0     0     4   1.560
       418.099617       93.799482      480.861370     1     0     0     0     6   1.560
       434.357061      135.847728      196.520447     1     0     0     0     8   1.560
       426.329220       11.442728      288.198687     1     0     0     0     1   1.560
       199.655423       16.156801      172.031843     1     0     0     0     8   1.560
       354.505780      289.410070      156.058543     1     0     0     0     8   1.560
       257.897959      232.480947      459.796517     1     0     0     0     5   1.560
       410.201097       96.296044      356.086754     1     0     0     0     8   1.560
       204.840266      157.136743      138.440897     1     0     0     0     5   1.560
       355.580513      152.387448      409.083643     1     0     0     0     2   1.560
       445.967467      399.979015      364.019333     1     0     0     0     6   1.560
       146.308320      256.053987      138.628187     1     0     0     0     1   1.560
        22.445909      222.253753      220.442490     1     0     0     0     6   1.560
       415.208112      469.164350      284.073905     1     0     0     0     1   1.560
        77.465977      393.451358       34.887398     1     0     0     0     4   1.560
       308.432543      320.152570      140.191741     1     0     0     0     3   1.560
       365.636393      270.426578      172.843529     1     0     0     0     5   1.560
       105.489152      246.683864      463.627671     1     0     0     0     2   1.560
       411.104479      278.578216      199.509018     1     0     0     0     6   1.560
       414.623695      148.930639      202.294965     1     0     0     0     5   1.560
        21.206714      100.909641      197.396707     1     0     0     0     5   1.560
         4.216468      450.618666       22.173085     1     0     0     0     6   1.560
         1.298754       76.317136      235.199536     1     0     0     0     8   1.560
       369.634745      146.744838      233.103064     1     0     0     0     2   1.560
       226.512651      327.407416      336.638676     1     0     0     0     4   1.560
        88.788601       16.860191      446.749942     1     0     0     0     6   1.560
       182.816030      382.069009      471.747887     1     0     0     0     1   1.560
        87.341835      190.687442      141.233175     1     0     0     0     1   1.560
        55.069932      136.311110      260.584707     1     0     0     0     4   1.560
        69.709659      370.005364      194.691558     1     0     0     0     8   1.560
       403.293014      169.531597      230.515216     1     0     0     0     7   1.560
       115.209703      477.347677      252.325851     1     0     0     0     1   1.560
       322.580876       16.438640      496.819872     1     0     0     0     8   1.560
       236.063628       15.194759      173.272749     1     0     0     0     7   1.560
       331.878299       83.128109      474.683636     1     0     0     0     7   1.560
        32.346464      273.934880      312.046636     1     0     0     0     6   1.560
       139.192247      118.342307      250.783556     1     0     0     0     4   1.560
        90.485759      436.071918      430.208759     1     0     0     0     2   1.560
       470.734560       74.046076       32.358430     1     0     0     0     4   1.560
         3.351483      343.771756      177.028096     1     0     0     0     7   1.560
       203.696058      384.090480      420.990238     1     0     0     0     3   1.560
       438.427630      363.344060      269.137113     1     0     0     0     3   1.560
        15.916948      125.989767       22.647576     1     0     0     0     6   1.560
        13.256511      376.806228      496.527128     1     0     0     0     1   1.560
       318.021442      482.824377      492.052181     1     0     0     0     4   1.560
       261.391124      363.017707      119.319424     1     0     0     0     2   1.560
       266.650435      298.540686        1.312746     1     0     0     0     5   1.560
       144.816236       77.605785      294.727002     1     0     0     0     4   1.560
        69.954538      128.327224      389.309946     1     0     0     0     7   1.560
       486.278324      178.910724       17.944058     1     0     0     0     2   1.560
       253.916515      131.823360      342.649705     1     0     0     0     2   1.560
       343.586252      446.822013      222.029369     1     0     0     0     8   1.560
       245.342695       61.260261      147.476382     1     0     0     0     7   1.560
       462.720957        7.360064      163.567484     1     0     0     0     7   1.560
        22.049642      221.161352      245.222558     1     0     0     0     7   1.560
       454.299096       41.660352      445.988628     1     0     0     0     1   1.560
       476.773551        8.245102       58.048462     1     0     0     0     8   1.560
        11.455694      427.127522       43.025568     1     0     0     0     4   1.560
        99.810994      356.901366      342.046607     1     0     0     0     6   1.560
       444.681161      373.869511      337.449057     1     0     0     0     5   1.560
       412.945135        0.864491       77.259665     1     0     0     0     6   1.560
       139.602945      488.939234      218.043512     1     0     0     0     8   1.560
        50.895079      155.453153       49.979370     1     0     0     0     2   1.560
       219.560643       34.961742      322.171857     1     0     0     0     3   1.560
       118.478633      265.727614      302.723969     1     0     0     0     8   1.560
        34.025011      317.691074      118.871635     1     0     0     0     2   1.560
       260.653209      474.609663       60.594564     1     0     0     0     6   1.560
        86.171874      282.031112      348.798730     1     0     0     0     8   1.560
       419.414209      159.933140       51.843208     1     0     0     0     1   1.560
       180.531235       44.381838      456.670921     1     0     0     0     8   1.560
       421.444903      229.752060      174.007077     1     0     0     0     8   1.560
        22.468142       70.551285       77.372667     1     0     0     0     5   1.560
       499.565447      480.223461      400.175390     1     0     0     0     4   1.560
        47.317897      406.108462      351.605560     1     0     0     0     1   1.560
       419.230282      290.083759      266.282694     1     0     0     0     3   1.560
       112.351253      371.526550      116.739332     1     0     0     0     2   1.560
        78.906128      313.750501      332.202009     1     0     0     0     4   1.560
       163.891297      209.525140      333.758361     1     0     0     0     2   1.560
       341.013706      175.777700      352.519196     1     0     0     0     2   1.560
       247.646821      120.122726      416.898067     1     0     0     0     6   1.560
       468.732479       63.485417      373.197585     1     0     0     0     8   1.560
        70.819611      373.982392      371.018159     1     0     0     0     6   1.560
       204.420640      401.446162      351.507501     1     0     0     0     8   1.560
        68.689154      339.871050       80.620219     1     0     0     0     1   1.560
        71.186132      218.046129      190.410874     1     0     0     0     7   1.560
       283.683656      170.000971       23.019980     1     0     0     0     7   1.560
        69.739158      288.539911       28.413923     1     0     0     0     7   1.560
       156.395759      481.547043      407.492357     1     0     0     0     4   1.560
       365.043739      318.126590      447.183843     1     0     0     0     5   1.560
       279.451028      371.333615      228.980156     1     0     0     0     6   1.560
       444.947871      299.659212      159.407988     1     0     0     0     7   1.560
       301.861921      430.835065      134.105137     1     0     0     0     1   1.560
       224.619501      207.243330      426.507923     1     0     0     0     7   1.560
       106.037335      497.786485      464.392769     1     0     0     0     8   1.560
       194.023007      347.697274      174.426306     1     0     0     0     7   1.560
       308.026148      474.458636       35.731825     1     0     0     0     8   1.560
       293.749453      150.071869      415.429641     1     0     0     0     2   1.560
       230.184354       92.273775      342.283680     1     0     0     0     6   1.560
       351.616800      379.507408      352.216047     1     0     0     0     3   1.560
       252.856064      461.567595      305.933336     1     0     0     0     8   1.560
       153.435954      301.573357      336.805646     1     0     0     0     8   1.560
       309.709254      128.673810       84.787904     1     0     0     0     4   1.560
        99.617262      409.447704      447.390406     1     0     0     0     8   1.560
       193.957226      222.156970      153.102741     1     0     0     0     5   1.560
       335.087033      460.267941      129.615091     1     0     0     0     4   1.560
       174.898865      312.569567       39.138287     1     0     0     0     7   1.560
       329.491719      177.972030      289.999136     1     0     0     0     1   1.560
       373.318071      269.698026      387.405892     1     0     0     0     3   1.560
       243.237953      208.872664      303.178900     1     0     0     0     2   1.560
       177.562245      181.128908      300.456146     1     0     0     0     5   1.560
       405.506628      457.724899      117.438970     1     0     0     0     7   1.560
       415.638360      213.320050      187.345612     1     0     0     0     8   1.560
       479.058866      282.738441      406.797347     1     0     0     0     3   1.560
        13.102807      322.911779      284.849491     1     0     0     0     8   1.560
       236.191314      318.489848      144.544358     1     0     0     0     2   1.560
       206.407919      485.449924      198.467683     1     0     0     0     8   1.560
       453.770167      388.208883      234.528097     1     0     0     0     1   1.560
       341.941132      113.937124      443.404115     1     0     0     0     4   1.560
       378.411902       99.970301      244.752204     1     0     0     0     6   1.560
       198.053268      341.890853       90.562016     1     0     0     0     7   1.560
        44.398366      224.803819       46.655250     1     0     0     0     2   1.560
       395.396525       69.617867      281.608328     1     0     0     0     2   1.560
        66.649484       17.564894      115.159216     1     0     0     0     8   1.560
       406.248876      137.662233      287.577287     1     0     0     0     4   1.560
       287.353424      347.026336       62.501403     1     0     0     0     4   1.560
       286.068944      213.558035      452.653438     1     0     0     0     6   1.560
        96.018153       81.442175      217.868908     1     0     0     0     7   1.560
       438.144010      127.299180      342.252528     1     0     0     0     3   1.560
       286.791877      175.596596      378.054224     1     0     0     0     1   1.560
       374.874799      482.768071      420.719409     1     0     0     0     1   1.560
       320.709952      124.086073      235.058047     1     0     0     0     3   1.560
       242.297126      196.089020      417.702550     1     0     0     0     8   1.560
       284.847263      170.428206       10.954595     1     0     0     0     8   1.560
       359.855677      404.053783      162.729322     1     0     0     0     6   1.560
       257.250856      165.595152      242.345758     1     0     0     0     7   1.560
       470.259162      340.816222      237.323032     1     0     0     0     8   1.560
       209.732619      459.409793      403.820881     1     0     0     0     3   1.560
       264.369994      391.378897      495.931885     1     0     0     0     1   1.560
        90.403284      125.927912      308.274977     1     0     0     0     5   1.560
       389.681227      449.665796       20.777544     1     0     0     0     2   1.560
       286.118517      164.101138      234.583565     1     0     0     0     4   1.560
        85.383009      227.935389      320.863883     1     0     0     0     5   1.560
       476.755746      455.581190      244.162453     1     0     0     0     1   1.560
        52.384565      372.034857      213.307864     1     0     0     0     7   1.560
       395.602389      328.515042       90.450798     1     0     0     0     6   1.560
       302.811801      321.837573      492.294579     1     0     0     0     2   1.560
       103.598856       30.202257      145.055156     1     0     0     0     1   1.560
       236.795858      253.210785      478.270256     1     0     0     0     8   1.560
       274.913584       18.463249      334.257966     1     0     0     0     8   1.560
         5.396284      469.942345      168.802071     1     0     0     0     2   1.560
       362.075135      344.555934      469.785893     1     0     0     0     8   1.560
       210.992329      163.320511      485.667651     1     0     0     0     2   1.560
       326.158090      449.517031      184.133507     1     0     0     0     3   1.560
       280.617090      296.355812      347.115071     1     0     0     0     1   1.560
        57.976626      227.872645      496.168005     1     0     0     0     8   1.560
       129.331091      273.037186       36.063186     1     0     0     0     2   1.560
       169.412173       41.719730      306.836992     1     0     0     0     1   1.560
       194.854900      146.422904      279.116253     1     0     0     0     5   1.560
       409.995968      401.249881      214.617704     1     0     0     0     2   1.560
       215.619945      446.224667      198.431875     1     0     0     0     3   1.560
       391.981025       47.345950      498.213853     1     0     0     0     7   1.560
       386.477261      249.205580      225.062596     1     0     0     0     2   1.560
        72.926577       46.217897      209.552514     1     0     0     0     3   1.560