ITEM: TIMESTEP
0
ITEM: NUMBER OF ATOMS
        7535
ITEM: BOX BOUNDS pp pp pp
  0.0000000E+00   500.000000000000     
  0.0000000E+00   500.000000000000     
  0.0000000E+00   500.000000000000     
ITEM: ATOMS x y z nV nH f3 f4 orient
       205.962467      206.195565      197.491091     1     0     0     0     1
        63.610634      496.881737      147.251045     1     0     0     0     1
       379.038968      130.700559      138.548031     1     0     0     0     4
       311.229350       95.320488      329.205549     1     0     0     0     1
       129.848752       14.430310      300.318414     1     0     0     0     3
       248.858589      295.733891      312.508346     1     0     0     0     6
       282.840558      289.245167      283.698589     1     0     0     0     4
       186.343080      265.652964      347.089656     1     0     0     0     4
       473.173522      282.016957      403.906307     1     0     0     0     3
       363.527968      326.350246       75.057363     1     0     0     0     3
       246.123470      285.607105       34.021387     1     0     0     0     7
       166.170936      176.724783      444.463630     1     0     0     0     2
        82.207216      382.847120      235.100615     1     0     0     0     5
        46.967462       23.641366       84.198597     1     0     0     0     1
       228.134143      238.335481      486.119025     1     0     0     0     1
       312.020075       80.240897      267.403339     1     0     0     0     7
       181.948769      318.104844      259.809757     1     0     0     0     7
       262.404860      370.601185      302.350693     1     0     0     0     4
       131.196949      206.996833      131.943074     1     0     0     0     6
       109.832421       84.907646      201.234630     1     0     0     0     8
        73.301076      310.446541      472.941382     1     0     0     0     1
       356.472225      427.289006      408.315866     1     0     0     0     4
       372.605164       42.382903       21.195969     1     0     0     0     1
       286.682717       17.344181      240.904420     1     0     0     0     6
       303.296643       25.976901      131.212200     1     0     0     0     1
       213.455881      451.882977      370.682445     1     0     0     0     6
       193.825627       52.480192      230.763390     1     0     0     0     4
       153.244433      201.086257      342.528077     1     0     0     0     1
       130.232505      220.891365      258.794472     1     0     0     0     3
        95.206528      371.395685      163.986839     1     0     0     0     4
       343.339948       49.101694       67.083024     1     0     0     0     5
         2.216582      441.653694      384.863899     1     0     0     0     6
       427.535861      211.550837      126.715693     1     0     0     0     6
       171.968245      375.477519      199.702745     1     0     0     0     5
        77.090755      149.737671      132.835415     1     0     0     0     4
       247.552947      196.856314      228.765869     1     0     0     0     1
       430.158508      315.634056      368.355711     1     0     0     0     1
       312.889084      496.018983      317.508842     1     0     0     0     1
        15.378957      294.515114      213.726306     1     0     0     0     4
       454.201642      196.330913      274.652953     1     0     0     0     1
       172.426334      356.944404       20.375029     1     0     0     0     6
       166.646283       66.091475      286.841185     1     0     0     0     7
        96.102008      470.964885       19.542409     1     0     0     0     8
       467.748884      291.174429       60.037718     1     0     0     0     7
       402.307224      400.576607      249.179097     1     0     0     0     1
       167.105306      240.526508      372.282491     1     0     0     0     3
       234.469130      106.277042      110.654699     1     0     0     0     4
        20.450433       44.641697      171.760903     1     0     0     0     4
       328.406094      141.771982       81.049491     1     0     0     0     4
       426.190617      372.799772      136.923946     1     0     0     0     3
        67.901825      401.447439      168.362640     1     0     0     0     8
       379.116415      214.814166      146.060672     1     0     0     0     6
       458.851615      138.748149       93.860652     1     0     0     0     7
       494.462057      377.055037      419.022956     1     0     0     0     8
        22.692400      141.306100      246.162937     1     0     0     0     4
       161.230551      201.246596      412.202270     1     0     0     0     7
       451.975838      102.727542      204.854508     1     0     0     0     8
       421.853973      266.902129      434.024792     1     0     0     0     1
       156.351892      236.851305       33.942657     1     0     0     0     2
       325.077339      352.203826      248.392251     1     0     0     0     6
       386.996372      374.267999      188.379790     1     0     0     0     1
       425.433771      283.170812      331.669767     1     0     0     0     3
         0.104887       50.290608      417.066779     1     0     0     0     4
       301.066392       24.195599       92.150673     1     0     0     0     1
       426.654188      313.830415      144.844985     1     0     0     0     6
       455.744221       29.656470       67.590445     1     0     0     0     6
       458.313883      466.248983      398.909460     1     0     0     0     1
       446.613010      235.457221       31.396342     1     0     0     0     8
       499.829798      483.150620       34.479637     1     0     0     0     2
       235.249600      124.994247      496.847871     1     0     0     0     3
        69.182386      253.712095      389.201302     1     0     0     0     3
       189.605842      279.912123      108.666824     1     0     0     0     2
       336.116162      136.032618      461.800212     1     0     0     0     3
       405.503454      392.830921      250.748959     1     0     0     0     8
       208.805116      318.480832       28.126242     1     0     0     0     6
       362.203942      437.872196      346.594293     1     0     0     0     5
       342.117967      215.545131      246.192589     1     0     0     0     4
       461.796869      232.667340      277.657099     1     0     0     0     3
       293.694129        5.748498       54.689279     1     0     0     0     1
       276.378647       17.186961      314.326793     1     0     0     0     1
       451.266777      290.027638      350.417354     1     0     0     0     3
       374.186113      494.980691      449.489886     1     0     0     0     1
       341.043617      248.887969      240.062884     1     0     0     0     8
       307.777531      374.417107      330.468484     1     0     0     0     4
        33.112686      150.662799       79.541152     1     0     0     0     6
       311.787760      401.274901      155.741187     1     0     0     0     8
       318.030417       33.050222      362.150523     1     0     0     0     1
       299.980355      160.602040      478.465674     1     0     0     0     8
       174.190700       43.762711      496.646383     1     0     0     0     4
        67.459185       32.597695       15.405515     1     0     0     0     4
       208.494844      270.794276      268.815069     1     0     0     0     8
        41.385634      310.641767      265.934687     1     0     0     0     3
       158.294826       41.210398      272.332692     1     0     0     0     8
       442.319021      274.077325      222.988001     1     0     0     0     3
        23.463748      273.515714      176.840795     1     0     0     0     8
       479.470685      103.390228      191.845505     1     0     0     0     4
       245.112823      272.158093      264.286102     1     0     0     0     3
       103.924102       40.149054       24.072886     1     0     0     0     3
       333.142156      223.048456      191.075420     1     0     0     0     7
       363.202902      337.757306        6.421115     1     0     0     0     6
       301.482523      107.616154      162.105504     1     0     0     0     7
        68.914986      261.950803        9.299915     1     0     0     0     7
       256.089410      254.697565      499.876696     1     0     0     0     5
       287.423209      180.698041      373.046898     1     0     0     0     3
       149.917527      147.465282      218.259785     1     0     0     0     6
       302.999073      476.489729      280.158699     1     0     0     0     7
        43.854782      486.163860      356.409531     1     0     0     0     4
       370.665247      250.778666      290.543537     1     0     0     0     5
        45.365889      308.796175      289.058954     1     0     0     0     1
       383.502947      406.457811      283.077773     1     0     0     0     3
       132.822018      100.941403      339.135700     1     0     0     0     1
       190.243621       90.734520      102.490632     1     0     0     0     3
       435.546965      314.430681      363.717619     1     0     0     0     7
       453.635851      118.666698      398.280575     1     0     0     0     6
       373.264350      256.222926      202.185557     1     0     0     0     7
       442.306122      417.814267      135.138909     1     0     0     0     2
       492.833887        7.500234      244.155023     1     0     0     0     8
       272.746168      125.398964      148.660011     1     0     0     0     6
       460.231506      151.524557      445.560650     1     0     0     0     5
        22.924883       38.067779      348.134249     1     0     0     0     7
       253.744184      475.820612      443.606585     1     0     0     0     3
        62.879041      429.139382        1.003571     1     0     0     0     7
       205.250065      222.940359      402.910962     1     0     0     0     1
       112.431218      265.198105      119.659326     1     0     0     0     7
       326.900525      176.635386      421.705595     1     0     0     0     7
       411.115515       25.439340      137.570298     1     0     0     0     2
       168.217323      340.602939      480.509305     1     0     0     0     7
       479.147761      357.754244       46.639487     1     0     0     0     6
       125.123871      379.813268      375.159814     1     0     0     0     2
       159.529619      148.630372       76.682403     1     0     0     0     1
       411.789606       32.598831       72.845865     1     0     0     0     6
        36.136776      334.463815      197.265891     1     0     0     0     8
       186.109895       87.253732      317.356665     1     0     0     0     1
         6.528923      261.745639      456.169054     1     0     0     0     7
        13.455721      321.288022      455.076177     1     0     0     0     6
       159.507459      228.426639       81.540928     1     0     0     0     4
       496.383005      410.493531      169.996106     1     0     0     0     4
       253.323091      242.234111      334.684739     1     0     0     0     1
       388.663926      383.774466      271.483849     1     0     0     0     3
       326.137525      223.047185      306.415937     1     0     0     0     3
       325.637719      211.461182      249.574539     1     0     0     0     3
       463.068480      139.475476      188.207354     1     0     0     0     5
       159.021558      172.712887        0.658062     1     0     0     0     3
         8.470749      226.229316      189.551146     1     0     0     0     6
       294.672515       62.901487      333.893703     1     0     0     0     5
       267.897400       52.721553      203.508517     1     0     0     0     4
       246.875680      145.295091      310.503350     1     0     0     0     3
       363.617828      328.604092       30.500986     1     0     0     0     3
       299.372264       64.084440       25.921610     1     0     0     0     4
       364.058574      358.352130      335.063323     1     0     0     0     6
       148.826559      386.954977      212.912980     1     0     0     0     7
       276.628193       48.850912      247.290643     1     0     0     0     8
       192.365226      497.385166      473.952682     1     0     0     0     4
        58.950771      248.954772      167.096574     1     0     0     0     7
        30.957394      430.590104      265.214831     1     0     0     0     7
       364.303658      275.443400      443.327656     1     0     0     0     8
        72.759014       27.799802      401.960420     1     0     0     0     3
       439.239553       48.542690      136.002661     1     0     0     0     8
       346.565632       17.734494      229.279936     1     0     0     0     7
       246.290403       99.234506      410.093915     1     0     0     0     8
       257.807496      191.938191      379.331291     1     0     0     0     2
       242.447731      321.837290      391.127668     1     0     0     0     7
       488.763508       10.515877      148.014135     1     0     0     0     2
       439.566188      342.028192      156.992548     1     0     0     0     2
       307.792749       91.008594      322.151765     1     0     0     0     7
       405.645982      313.024393      499.867904     1     0     0     0     3
        78.717198       23.061097      374.781163     1     0     0     0     6
       379.249786      269.790252      261.254847     1     0     0     0     7
       470.984720      131.977966      321.059153     1     0     0     0     2
       411.829844      386.056349      115.943034     1     0     0     0     4
        10.911703      139.342761      393.871615     1     0     0     0     2
       154.192318       37.591526      423.892651     1     0     0     0     8
       430.641363      444.841992      101.145098     1     0     0     0     7
        10.400282      205.035897      391.484719     1     0     0     0     5
       390.076963      249.051704      415.495811     1     0     0     0     5
        71.381475      249.604798      238.547499     1     0     0     0     4
       497.177970      381.260708      365.261796     1     0     0     0     1
        13.039492      302.413360      143.039652     1     0     0     0     6
       388.755432      279.191893      118.697472     1     0     0     0     6
       378.143570      337.659381      100.734902     1     0     0     0     7
       257.804827      450.394248      326.168128     1     0     0     0     5
       178.163671      349.321711      328.782166     1     0     0     0     2
       307.082626       78.550246       61.339455     1     0     0     0     8
       348.695534      282.398636      339.482326     1     0     0     0     8
         9.299747      455.034453      392.821432     1     0     0     0     8
       239.843304      125.089072      136.664991     1     0     0     0     2
       451.262483      459.167548      246.832343     1     0     0     0     2
        37.643013      259.580819      481.558088     1     0     0     0     3
       331.881558      204.065003      136.547697     1     0     0     0     2
       396.996542      244.746723      172.790677     1     0     0     0     1
       347.031963       93.673452      201.297755     1     0     0     0     7
       403.393561      228.606436       48.659621     1     0     0     0     4
       176.648470      470.100675      273.800608     1     0     0     0     4
        12.671366      219.846223      149.710791     1     0     0     0     5
       280.461418      134.064972      407.514067     1     0     0     0     5
       102.365250      192.040486      152.794150     1     0     0     0     5
       482.187832       56.674322      121.978246     1     0     0     0     5
       118.576786      481.703136      201.297844     1     0     0     0     6
       391.974449      259.061912       71.718273     1     0     0     0     6
       199.967960        5.890011      226.898131     1     0     0     0     7
       173.711574       58.439227       14.486333     1     0     0     0     7
        76.695029      320.145318      242.342338     1     0     0     0     4
       195.312732      382.707271      375.985134     1     0     0     0     5
       499.222006      346.187056      355.037624     1     0     0     0     1
       471.267842      341.453916      445.992463     1     0     0     0     3
        87.611870      338.089711      418.859654     1     0     0     0     3
        53.822865      134.313003      394.799245     1     0     0     0     8
       188.439138      332.223218      211.648763     1     0     0     0     2
        78.918469      372.343929      316.312350     1     0     0     0     4
       462.852096      489.367527      404.130944     1     0     0     0     2
       104.274462      380.891831      248.319867     1     0     0     0     3
        39.020249      120.522496      120.688954     1     0     0     0     8
       163.868887      483.865872      426.288294     1     0     0     0     4
        48.977444      353.157456      214.586647     1     0     0     0     2
       271.683998      179.803482      496.941800     1     0     0     0     2
       159.292890      451.497684      495.731209     1     0     0     0     2
       374.449244       53.873977      188.150621     1     0     0     0     8
       462.333743       43.538633      237.738793     1     0     0     0     7
       225.913738      251.744338      123.799612     1     0     0     0     1
       157.964997      485.784146      111.065220     1     0     0     0     5
       138.426796      310.365546       57.369457     1     0     0     0     4
         8.981206      214.548968      261.316092     1     0     0     0     6
        20.743193      369.603438      237.574220     1     0     0     0     2
       304.492727       67.263932      161.653845     1     0     0     0     6
       179.131656       56.294441      147.220527     1     0     0     0     2
       272.951296      308.069302      363.329329     1     0     0     0     8
       336.398236      367.927905      233.698257     1     0     0     0     4
        28.043844      262.136851      429.670578     1     0     0     0     4
       257.985646      308.474666      394.675488     1     0     0     0     8
       451.304410      203.444177      457.416815     1     0     0     0     5
       120.900041      492.845259      392.853345     1     0     0     0     7
       475.528627      187.805137      398.570633     1     0     0     0     1
        56.878238       91.116279      243.790833     1     0     0     0     3
       340.799316      399.470288      372.235997     1     0     0     0     4
       261.660570      410.532020      261.242811     1     0     0     0     4
       353.962489      164.776719      163.266436     1     0     0     0     2
       399.828946      496.606537      432.503442     1     0     0     0     7
       294.109760      493.795976       47.094456     1     0     0     0     8
        62.275715      437.446410      303.958653     1     0     0     0     8
       388.040721      116.544505      335.944323     1     0     0     0     4
       499.731864      447.214694       86.705336     1     0     0     0     5
       457.868364      168.264498      118.870367     1     0     0     0     5
        85.437389      353.968714      122.689494     1     0     0     0     8
       463.186188      391.784060      445.107401     1     0     0     0     3
       190.299297      234.257033       60.325554     1     0     0     0     4
        27.024755      324.211518      341.210786     1     0     0     0     8
       275.912520      360.996835       69.869140     1     0     0     0     2
       258.795329      165.515755      132.053077     1     0     0     0     1
       359.820246      360.440050      102.593475     1     0     0     0     1
       253.479810      222.324440      335.179312     1     0     0     0     7
       460.111742      162.914290      428.695631     1     0     0     0     3
       206.002398      434.749758      437.110370     1     0     0     0     1
        21.008870       72.799094      131.920361     1     0     0     0     5
        23.755649      353.100290       97.744226     1     0     0     0     6
        59.840173      264.411460      192.372117     1     0     0     0     5
       147.775813      241.833957       94.219300     1     0     0     0     6
       339.672883      202.821291       78.262744     1     0     0     0     6
       357.241016       15.626886      477.424799     1     0     0     0     6
       164.780464      177.955814      462.444731     1     0     0     0     4
        80.200010       97.872083        6.871706     1     0     0     0     4
         2.531812       58.013530      310.911178     1     0     0     0     7
        27.872945      137.292216      353.980987     1     0     0     0     7
       332.587076       82.213262      460.587637     1     0     0     0     8
        11.126473      158.495909      463.091131     1     0     0     0     6
       121.723474       54.720072        2.055167     1     0     0     0     8
       110.328263      194.051384      489.121442     1     0     0     0     1
       223.810642       96.223919      238.517772     1     0     0     0     4
        76.156605      415.902043      329.152671     1     0     0     0     6
       322.410910       27.294780      282.750834     1     0     0     0     7
       104.688843      463.251209        2.570148     1     0     0     0     3
       417.271764      436.577649      110.412290     1     0     0     0     1
       339.260596      193.395111      482.678237     1     0     0     0     1
       468.391018      109.875788      476.759015     1     0     0     0     5
       308.646820       49.344987      324.968337     1     0     0     0     6
       365.438398      447.082093      493.806042     1     0     0     0     3
       354.807700      488.634456       54.586227     1     0     0     0     4
       341.542841      294.836769      344.345618     1     0     0     0     2
       345.729306      228.738196        0.170740     1     0     0     0     2
       390.177696      155.271888       43.437290     1     0     0     0     3
       278.380776      371.231486      243.055225     1     0     0     0     5
        86.254980      261.304902      205.379786     1     0     0     0     6
       405.342654      426.715280      342.022493     1     0     0     0     5
       254.152003      258.751788      313.483595     1     0     0     0     5
       193.826352      469.771115      225.950075     1     0     0     0     7
        42.582512      420.377630      358.282773     1     0     0     0     6
        68.855528       21.546773       74.690817     1     0     0     0     5
        21.210078      211.424185      333.508309     1     0     0     0     7
       205.064899      439.761259      130.941974     1     0     0     0     1
       449.945254      400.155347        8.298791     1     0     0     0     6
       306.560976      404.241306      408.028118     1     0     0     0     2
       115.424134        3.030246      208.898707     1     0     0     0     8
        55.469975      361.899665      354.756937     1     0     0     0     3
       357.461501      438.410024      392.490154     1     0     0     0     2
       107.467444      267.380147      423.763045     1     0     0     0     4
       211.089402       54.356850      151.180097     1     0     0     0     7
       445.798614      281.445905      266.571352     1     0     0     0     4
       402.870951      335.392304        7.784602     1     0     0     0     4
       216.426719      473.098473       56.647879     1     0     0     0     2
       376.586552      166.843522      340.928004     1     0     0     0     6
       414.672230      116.563183      255.428106     1     0     0     0     7
       404.076809      149.261237      371.027158     1     0     0     0     5
        94.166103      228.981795       88.816706     1     0     0     0     5
       183.703593      308.508846      379.685590     1     0     0     0     7
       154.916528       38.655454      309.006460     1     0     0     0     8
       230.421722       32.305885       15.282046     1     0     0     0     1
       406.158499      362.445472      149.406927     1     0     0     0     2
       428.573006      279.441220      366.423210     1     0     0     0     1
       378.807318      147.692123       89.848766     1     0     0     0     3
       425.993104       54.146049       33.346768     1     0     0     0     6
       170.651069      331.177439      101.514609     1     0     0     0     4
       342.279145      429.877670      135.619762     1     0     0     0     6
       153.449972      345.792618      301.261869     1     0     0     0     6
        83.569387       86.262482       34.932152     1     0     0     0     8
       388.428087       94.254115      287.980342     1     0     0     0     8
       203.760137      329.344176      191.930041     1     0     0     0     1
       413.921978      265.327717      400.613574     1     0     0     0     8
       242.656236      468.356271        7.077360     1     0     0     0     2
       427.887133      338.109862      109.484926     1     0     0     0     3
       302.767366      164.471880      119.362911     1     0     0     0     6
       167.087220      467.918178      174.266709     1     0     0     0     6
       234.283973      214.464346      109.041301     1     0     0     0     4
       330.637716      369.070255       40.663835     1     0     0     0     4
       360.505549      251.900786      469.729607     1     0     0     0     4
       286.810079      316.157802       46.942167     1     0     0     0     6
       160.484980      477.316814      413.846453     1     0     0     0     2
        95.968228       44.017858       52.426877     1     0     0     0     5
       319.491296       35.141411      161.370907     1     0     0     0     7
       369.795641      157.005353      266.822574     1     0     0     0     8
       194.824129      455.314723      154.344606     1     0     0     0     2
        44.654399       59.164901      118.663872     1     0     0     0     7
       389.859464       93.675683      377.688775     1     0     0     0     4
       482.154136      376.098833       62.442670     1     0     0     0     4
         5.244987      485.983838      128.786349     1     0     0     0     8
       474.461389      322.077726      131.831140     1     0     0     0     3
       400.989363      178.556171      392.764052     1     0     0     0     6
       471.842528      332.728740      293.173292     1     0     0     0     6
       485.708430      309.966037      203.526376     1     0     0     0     8
       299.917756      494.848016      391.587911     1     0     0     0     7
       456.080187      336.438586      237.358889     1     0     0     0     6
         9.972667      207.828099       68.512774     1     0     0     0     5
       159.259202      320.571305      135.686327     1     0     0     0     3
       248.490598      103.485416        5.425247     1     0     0     0     4
       387.538263      480.686271      382.598229     1     0     0     0     7
       169.500083      134.251276      483.954442     1     0     0     0     8
       269.474730      473.457081      473.709312     1     0     0     0     2
       411.666362      417.017318        4.486341     1     0     0     0     7
       310.098688      455.552110      197.173847     1     0     0     0     7
       377.378452      152.745121      457.852207     1     0     0     0     6
       469.906573      193.801751      137.466246     1     0     0     0     6
        73.294984        3.173477       39.175854     1     0     0     0     8
       271.346050      140.262247      218.047003     1     0     0     0     6
       189.841089        9.236239      316.032067     1     0     0     0     5
       356.053835      301.811504       86.962403     1     0     0     0     3
       126.639303      138.127696      163.186902    16     0     0     0     6
       368.006628      405.004519       34.196998     1     0     0     0     2
        96.269319      493.515121      308.749939     1     0     0     0     3
        85.654295      401.280259      494.530608     1     0     0     0     1
        19.862319      480.589797      366.086586     1     0     0     0     1
        11.410752      201.397519      352.417222     1     0     0     0     6
       189.871663      221.561511       24.524882     1     0     0     0     5
       335.829917      419.078304       96.513233     1     0     0     0     1
       338.112985      479.504814      430.003348     1     0     0     0     3
       390.042185      193.926098      321.455238     1     0     0     0     1
       118.531002      311.651760      139.849053     1     0     0     0     2
       269.630293      321.478767       59.326159     1     0     0     0     7
       116.282825      117.828577      491.761515     1     0     0     0     4
       456.895143      295.038325      299.381207     1     0     0     0     2
        87.843725       95.562189      331.015998     1     0     0     0     2
       414.581581      437.402191      461.012816     1     0     0     0     2
       466.194833      289.104184      349.860341     1     0     0     0     7
       324.758061      211.230263      216.329744     1     0     0     0     7
       440.721238      346.672556      295.199039     1     0     0     0     7