ITEM: TIMESTEP
0
ITEM: NUMBER OF ATOMS
        7539
ITEM: BOX BOUNDS pp pp pp
  0.0000000E+00   500.000000000000     
  0.0000000E+00   500.000000000000     
  0.0000000E+00   500.000000000000     
ITEM: ATOMS x y z f1 f2 f3 f4 orient radius
       463.830834      389.396249      241.084976     1     0     0     0     3   1.560
       399.440974      346.510790      407.513738     1     0     0     0     2   1.560
        62.395331      122.374171      366.700944     1     0     0     0     1   1.560
       150.628057      225.301393      129.837427     1     0     0     0     6   1.560
       485.580537       93.516562      312.182292     1     0     0     0     5   1.560
       155.455585      429.961817      458.879913     1     0     0     0     5   1.560
       286.274116      203.367967      387.633454     1     0     0     0     3   1.560
       307.827864      382.629245      284.983901     1     0     0     0     8   1.560
       170.226612       66.847960      379.862807     1     0     0     0     3   1.560
       461.965912      278.902703      330.888556     1     0     0     0     5   1.560
       177.607284      457.215584      440.447302     1     0     0     0     2   1.560
       430.662345      446.698146      416.221603     1     0     0     0     5   1.560
       229.356747      223.245087      308.008130     1     0     0     0     7   1.560
         2.607923      432.568852      200.822114     1     0     0     0     3   1.560
       458.212712      179.384527      498.710990     1     0     0     0     1   1.560
       133.100807      498.987580      142.730821     1     0     0     0     1   1.560
        66.932204      298.807959       33.826332     1     0     0     0     2   1.560
       391.913556      397.593154      231.479617     1     0     0     0     1   1.560
       492.300024      347.783405      208.822878     1     0     0     0     8   1.560
         1.764008      189.781189      423.038973     1     0     0     0     8   1.560
       401.320614      112.026995      253.600294     1     0     0     0     4   1.560
        96.154620      405.565687      189.161985     1     0     0     0     2   1.560
        23.026511      412.820168      471.338458     1     0     0     0     4   1.560
       463.780667      277.019061        9.462225     1     0     0     0     7   1.560
       409.202209      290.361485      212.785471     1     0     0     0     4   1.560
       123.637499      129.876425      324.459371     1     0     0     0     4   1.560
       142.643098       52.166769       38.968583     1     0     0     0     2   1.560
       342.665449       67.651614      395.523699     1     0     0     0     8   1.560
       470.276719      255.306624      466.575086     1     0     0     0     8   1.560
       426.357794      430.849008      449.089047     1     0     0     0     1   1.560
       275.608130      445.760300      370.555351     1     0     0     0     8   1.560
        53.051640       93.889274       92.584529     1     0     0     0     7   1.560
        53.423806       63.649923      456.472608     1     0     0     0     5   1.560
        97.999275      214.779917      345.978459     1     0     0     0     8   1.560
       363.243731      494.746970      448.189993     1     0     0     0     8   1.560
       403.932910      312.281769      499.447420     1     0     0     0     8   1.560
       192.968071       19.569158      110.856281     1     0     0     0     6   1.560
       290.212332      476.488291      246.150161     1     0     0     0     2   1.560
        17.359611       98.690799       39.606051     1     0     0     0     4   1.560
       130.557481       89.618299      403.517373     1     0     0     0     7   1.560
       416.622509      334.644165      195.897285     1     0     0     0     3   1.560
       164.288076      102.727148      471.250212     1     0     0     0     2   1.560
        66.507630      329.967098      169.763709     1     0     0     0     5   1.560
       496.181327      142.607236      324.496077     1     0     0     0     6   1.560
        81.570776      334.230456      101.448167     1     0     0     0     5   1.560
       188.927479      431.613125      216.927046     1     0     0     0     6   1.560
        38.251343      225.634596        9.892783     1     0     0     0     8   1.560
       419.904884      466.097432      148.860291     1     0     0     0     4   1.560
        72.102249      498.515318      453.638842     1     0     0     0     3   1.560
       373.201726      298.349010      443.426187     1     0     0     0     4   1.560
       431.082950       86.580824      339.163823     1     0     0     0     3   1.560
       390.781386       45.255204      281.576206     1     0     0     0     2   1.560
       187.834724       35.684080       96.199970     1     0     0     0     6   1.560
        10.443342      396.185766      109.768176     1     0     0     0     6   1.560
       178.057793      190.985262        9.106860     1     0     0     0     2   1.560
         7.469774      415.034104       35.503868     1     0     0     0     7   1.560
        35.133378      119.698601      269.713359     1     0     0     0     5   1.560
        49.128158      425.786217      484.139185     1     0     0     0     3   1.560
        11.371113      307.548484      499.844457     1     0     0     0     5   1.560
        35.371360      397.838980      457.226941     1     0     0     0     2   1.560
       470.089417      476.114155      479.588146     1     0     0     0     2   1.560
       242.236922      268.794705      275.068011     1     0     0     0     5   1.560
       430.250139      452.435283      191.797264     1     0     0     0     5   1.560
       411.035033      441.717364      374.554962     1     0     0     0     3   1.560
       494.270449      270.822056      180.744604     1     0     0     0     3   1.560
       137.927590      277.317221      473.289781     1     0     0     0     2   1.560
        72.479894      141.603689       36.304006     1     0     0     0     7   1.560
       238.030275      493.192834      242.089390     1     0     0     0     1   1.560
       459.868305      222.963535      481.290427     1     0     0     0     7   1.560
       487.578378      403.251712      295.624057     1     0     0     0     7   1.560
       366.208108      364.180224      196.391742     1     0     0     0     6   1.560
       216.530901      347.136122      307.887341     1     0     0     0     5   1.560
       383.667493      279.314732       40.122319     1     0     0     0     8   1.560
        60.462022      391.843389      275.490356     1     0     0     0     5   1.560
       261.784107        2.586066       43.561769     1     0     0     0     2   1.560
       156.794829      157.664401        4.314215     1     0     0     0     3   1.560
       310.972156      224.141575      311.106663     1     0     0     0     4   1.560
       357.359660      144.306409      357.807761     1     0     0     0     6   1.560
        18.471087      365.493608      474.608176     1     0     0     0     3   1.560
       231.745453       74.739009      369.509749     1     0     0     0     2   1.560
       136.186323      180.111856      420.523135     1     0     0     0     3   1.560
       492.248920      164.696258      264.681188     1     0     0     0     5   1.560
       104.167041      133.670922      312.654827     1     0     0     0     7   1.560
       328.529992      452.365592      386.401061     1     0     0     0     3   1.560
       373.252429      349.179253      271.807359     1     0     0     0     3   1.560
       204.697761      212.031108      362.460335     1     0     0     0     6   1.560
        32.420232      197.167948        9.622590     1     0     0     0     3   1.560
       249.917219      145.674304      319.137239     1     0     0     0     3   1.560
       334.935829      266.788937      223.053618     1     0     0     0     2   1.560
       264.355139      358.883962      361.798775     1     0     0     0     6   1.560
       326.129565      498.153588       28.767751     1     0     0     0     1   1.560
       183.956974      449.627110      238.468639     1     0     0     0     5   1.560
       138.454848      310.648725      171.798238     1     0     0     0     3   1.560
       103.501863      471.581173      252.323190     1     0     0     0     2   1.560
       117.015255      127.829406      335.900279     1     0     0     0     4   1.560
       276.537422       54.898795      128.499021     1     0     0     0     5   1.560
       399.360260      300.775877      167.381291     1     0     0     0     8   1.560
       255.227214      232.994505      248.898603     1     0     0     0     1   1.560
       193.532150      141.712526       80.695205     1     0     0     0     3   1.560
       169.726490      388.628612      253.889857     1     0     0     0     7   1.560
       453.188495      338.571866      202.822446     1     0     0     0     3   1.560
       446.692536      119.592078       89.626442     1     0     0     0     1   1.560
        48.629377      155.087424      357.884118     1     0     0     0     2   1.560
       193.495747      175.062546      469.740980     1     0     0     0     8   1.560
       293.743435      318.401183      340.350119     1     0     0     0     3   1.560
       390.391291      303.315492      495.869914     1     0     0     0     2   1.560
       358.449387      288.122499      472.804708     1     0     0     0     6   1.560
       338.741997      364.244981      210.750855     1     0     0     0     1   1.560
       372.483067      406.414701      150.658196     1     0     0     0     2   1.560
       229.868901      200.796975      427.997263     1     0     0     0     6   1.560
       483.509060      174.262715      335.437469     1     0     0     0     7   1.560
        73.728145      130.694253      194.340957     1     0     0     0     8   1.560
       164.455742      330.654958      303.660883     1     0     0     0     3   1.560
       329.705797      454.545908       17.913131     1     0     0     0     6   1.560
       286.925058      261.182811       68.844903     1     0     0     0     7   1.560
       401.426582      320.823286      368.799690     1     0     0     0     7   1.560
        97.046381       57.361597        7.701869     1     0     0     0     1   1.560
       323.316542      128.061709      158.166380     1     0     0     0     3   1.560
       360.733631      320.993835      297.955571     1     0     0     0     3   1.560
       282.011133      261.302337      377.734788     1     0     0     0     6   1.560
       317.713710      269.056206      203.616762     1     0     0     0     1   1.560
        76.777006       59.661323      334.942359     1     0     0     0     2   1.560
       403.064689      480.339586      389.718608     1     0     0     0     4   1.560
         2.821689      497.141775      462.307813     1     0     0     0     4   1.560
         1.155115      482.626364      180.987936     1     0     0     0     6   1.560
       176.560216       95.952374      402.844937     1     0     0     0     1   1.560
        28.797501      431.619372      302.964135     1     0     0     0     3   1.560
       178.001921      163.842398      249.843788     1     0     0     0     3   1.560
       185.456493      490.841076      307.601637     1     0     0     0     8   1.560
       435.333189       70.420571      377.589781     1     0     0     0     1   1.560
       297.255976      244.547898      273.973317     1     0     0     0     1   1.560
       444.554577      333.639775      345.086643     1     0     0     0     3   1.560
       497.426544      153.375678      223.420010     1     0     0     0     8   1.560
       499.883581      394.075074      158.769484     1     0     0     0     6   1.560
       251.795121      473.468166      380.138446     1     0     0     0     6   1.560
       490.894663       26.293418      406.665321     1     0     0     0     2   1.560
       383.982735      304.747420      224.176528     1     0     0     0     7   1.560
       130.171099      390.294262      414.478232     1     0     0     0     5   1.560
        41.758936      156.977071      278.009696     1     0     0     0     1   1.560
       478.842740      320.626702      152.683093     1     0     0     0     5   1.560
       479.355652      449.984962      189.437511     1     0     0     0     2   1.560
       482.251361      136.182548      339.477732     1     0     0     0     7   1.560
       350.088859      388.062906      340.611087     1     0     0     0     7   1.560
       276.259160      385.159345      172.069688     1     0     0     0     2   1.560
       158.145551      407.930060       60.930959     1     0     0     0     2   1.560
       147.719357      318.156936      420.849674     1     0     0     0     3   1.560
       295.336783      378.476362      446.025869     1     0     0     0     6   1.560
        12.904477      461.835630      412.201371     1     0     0     0     8   1.560
       311.631694      411.523320       58.731706     1     0     0     0     5   1.560
       160.759867      356.267556       77.705594     1     0     0     0     3   1.560
       490.734096       83.719951      419.161608     1     0     0     0     8   1.560
       351.957052      392.217396      166.535153     1     0     0     0     5   1.560
        21.486088       52.465585      478.894846     1     0     0     0     4   1.560
       228.346195      471.476109      139.178088     1     0     0     0     2   1.560
       117.909233      338.975926       46.290867     1     0     0     0     2   1.560
       145.668024       82.150731      102.134489     1     0     0     0     5   1.560
        91.004411      134.697923       18.352820     1     0     0     0     6   1.560
       499.143635      112.492559      419.705779     1     0     0     0     8   1.560
       390.986170        5.581126      386.541477     1     0     0     0     1   1.560
       494.527143       34.206122      452.690522     1     0     0     0     7   1.560
       109.275001      130.039738      291.053235     1     0     0     0     5   1.560
       391.626990      164.214074      135.551819     1     0     0     0     1   1.560
       480.492909      474.187148        0.646491     1     0     0     0     5   1.560
       297.541367      337.793734      104.624036     1     0     0     0     1   1.560
       104.263521       24.769433      259.288274     1     0     0     0     6   1.560
       253.448548      251.692466      238.953593     1     0     0     0     3   1.560
       261.918446      295.881225      442.516623     1     0     0     0     1   1.560
       491.151202       17.353712        1.196801     1     0     0     0     5   1.560
       452.557076      165.723664       12.521145     1     0     0     0     5   1.560
        98.272881      156.649283       10.778315     1     0     0     0     1   1.560
        33.882897      188.705885       60.992279     1     0     0     0     1   1.560
       127.130525      448.364495      308.687375     1     0     0     0     4   1.560
        82.747920      219.264418      460.895509     1     0     0     0     7   1.560
       182.442837      129.810896       65.177997     1     0     0     0     6   1.560
       361.458714      469.254530       86.628485     1     0     0     0     3   1.560
       138.302731      395.260744      409.511749     1     0     0     0     4   1.560
       305.961688      394.616297       24.202428     1     0     0     0     2   1.560
       222.496341        1.957040       89.532040     1     0     0     0     6   1.560
       129.329488      214.185550      434.089699     1     0     0     0     3   1.560
        47.246045      292.766249      486.443436     1     0     0     0     1   1.560
        18.222599       81.988775      181.870812     1     0     0     0     1   1.560
       301.507194      302.313062      201.817223     1     0     0     0     4   1.560
        91.209709      368.548524      354.106477     1     0     0     0     6   1.560
       424.617497       70.976534       92.194468     1     0     0     0     6   1.560
        27.831830      454.808141      230.866109     1     0     0     0     7   1.560
       170.543001       94.026234      254.858412     1     0     0     0     4   1.560
       220.549775      180.868021      159.032539     1     0     0     0     3   1.560
        28.952482       62.564127      265.455988     1     0     0     0     5   1.560
       437.932259      303.715770      216.566053     1     0     0     0     5   1.560
        99.553347      238.812012      368.134413     1     0     0     0     8   1.560
        34.417726      376.102138      474.388393     1     0     0     0     1   1.560
       342.278149      438.190289      406.892876     1     0     0     0     6   1.560
       451.245647      268.212187       14.689572     1     0     0     0     3   1.560
       477.787834      378.787557      301.307632     1     0     0     0     6   1.560
       191.926780      265.144760      279.074878     1     0     0     0     4   1.560
        82.507371      355.239187      138.395643     1     0     0     0     3   1.560
       190.445285      462.900478      355.221365     1     0     0     0     7   1.560
        39.182156      376.216616       81.996299     1     0     0     0     8   1.560
       491.690903      494.441313      344.121323     1     0     0     0     6   1.560
        66.631744      376.742677      347.905093     1     0     0     0     5   1.560
       114.976663       61.560970      312.272021     1     0     0     0     4   1.560
       328.221694      280.054989      442.186340     1     0     0     0     5   1.560
       372.659715       62.611652       91.922862     1     0     0     0     8   1.560
       144.449278      154.335842      209.700290     1     0     0     0     2   1.560
         3.790465      168.977611      279.543723     1     0     0     0     7   1.560
       385.618772      106.197287      407.159549     1     0     0     0     2   1.560
       299.906049      311.420667      220.948505     1     0     0     0     5   1.560
       128.708345      414.956904      267.395966     1     0     0     0     2   1.560
       390.460414      397.945613      478.206178     1     0     0     0     2   1.560
       210.960160      203.922016      345.940362     1     0     0     0     6   1.560
       273.588026       74.159352      246.410859     1     0     0     0     5   1.560
       396.153092      189.605914       66.250032     1     0     0     0     2   1.560
       229.376625      126.461617      276.481610     1     0     0     0     7   1.560
        20.361811      173.873320      223.364630     1     0     0     0     1   1.560
       316.088151      446.254050      358.133472     1     0     0     0     4   1.560
       413.736721       34.897907      447.987718     1     0     0     0     8   1.560
       106.893816      239.572343      243.636913     1     0     0     0     1   1.560
        92.788866      467.593780      427.081683     1     0     0     0     8   1.560
       384.995387       99.759852      186.274400     1     0     0     0     5   1.560
       162.184170      480.033873      381.914524     1     0     0     0     5   1.560
       148.921430      406.901119       76.601363     1     0     0     0     1   1.560
        13.899295      358.451565      437.175575     1     0     0     0     4   1.560
       333.145717      293.052328      418.750118     1     0     0     0     5   1.560
       378.552663        7.725864      320.243773     1     0     0     0     3   1.560
       444.712142      466.050120       25.306643     1     0     0     0     1   1.560
       346.585818      294.498521      297.781630     1     0     0     0     2   1.560
       269.632119      193.454567       58.674635     1     0     0     0     6   1.560
       351.555627      298.056924      105.059527     1     0     0     0     1   1.560
       326.090172      205.433235      467.327731     1     0     0     0     1   1.560
       296.476564      348.339091      301.577556     1     0     0     0     1   1.560
       101.622685      476.192812      172.670099     1     0     0     0     4   1.560
       180.738559      442.014213        0.076640     1     0     0     0     7   1.560
       302.326965       19.540597      270.376360     1     0     0     0     2   1.560
       413.996575      261.685403      251.744299     2     0     0     0     5   1.970
       487.834245       13.328033      267.605192     1     0     0     0     8   1.560
       362.068658      421.228320       88.426952     1     0     0     0     2   1.560
       220.637544      483.252415      127.757250     1     0     0     0     6   1.560
        85.743798        8.134748      252.503141     1     0     0     0     1   1.560
       475.891837      464.773110      211.703530     1     0     0     0     8   1.560
        87.900249      245.096238      481.392257     1     0     0     0     4   1.560
       195.887180       82.290450      293.886747     1     0     0     0     8   1.560
       143.773164      100.049999       49.421694     1     0     0     0     8   1.560
       248.434018      284.865446      240.820460     1     0     0     0     2   1.560
        81.277340      111.094676      124.255169     1     0     0     0     6   1.560
       467.308492      382.368569      169.098560     1     0     0     0     4   1.560
       246.435229      404.326993      211.611847     1     0     0     0     1   1.560
        23.682770      443.533444      325.504154     1     0     0     0     5   1.560
       443.644866      444.135600      115.756548     1     0     0     0     6   1.560
        77.742710      441.979309      148.878429     1     0     0     0     8   1.560
        54.314854      216.228382       99.562341     1     0     0     0     5   1.560
       141.320575      443.785117       73.146177     1     0     0     0     7   1.560
       157.768483       90.642536      327.392222     1     0     0     0     2   1.560
       226.245132      421.651532        0.527865     1     0     0     0     6   1.560
        37.826426      312.018061      318.059097     1     0     0     0     8   1.560
       383.235584       85.713745      248.287131     1     0     0     0     4   1.560
       388.781842      270.669106        6.539354     1     0     0     0     2   1.560
       136.289648      467.920182      429.575011     1     0     0     0     5   1.560
        44.858104      157.426262      254.901637     1     0     0     0     8   1.560
       163.973596      182.501318       77.648601     1     0     0     0     5   1.560
       281.187707      374.347262      439.473590     1     0     0     0     1   1.560
        74.237566      466.976585      357.260911     1     0     0     0     2   1.560
       238.994408      182.986787        8.559728     1     0     0     0     1   1.560
       316.813570      126.808465      375.592448     1     0     0     0     7   1.560
        54.811231      384.586050      322.082369     1     0     0     0     2   1.560
       231.553893       31.731319      116.708607     1     0     0     0     1   1.560
       255.600109      208.754522      211.888866     1     0     0     0     3   1.560
       490.394444      117.739114      415.986626     1     0     0     0     2   1.560
       419.731734      165.484476      374.073553     1     0     0     0     7   1.560
       481.175779      152.156540      338.883355     1     0     0     0     5   1.560
       480.311559       53.528966      108.874882     1     0     0     0     4   1.560
       418.336173      435.100557      428.303953     1     0     0     0     6   1.560
        42.646936      338.376812      264.189837     1     0     0     0     7   1.560
        33.300447      273.062900      487.072711     1     0     0     0     4   1.560
        96.553728      321.379399      355.959218     1     0     0     0     2   1.560
       491.795244      437.419953       57.998411     1     0     0     0     2   1.560
        80.776994      181.615024        4.459665     1     0     0     0     1   1.560
       381.326447      132.916828       83.618465     1     0     0     0     7   1.560
       200.879454       84.771995      157.463496     1     0     0     0     4   1.560
        86.886916      252.033830      392.413991     1     0     0     0     7   1.560
       334.019901      244.846493      175.088654     1     0     0     0     1   1.560
        30.404094       95.448391       71.046072     1     0     0     0     6   1.560
       129.176771      120.496520      433.756252     1     0     0     0     4   1.560
       211.829611       65.689684      489.061447     1     0     0     0     5   1.560
       412.204629      133.320143      324.667103     1     0     0     0     4   1.560
       123.054587      120.542775      129.765917     1     0     0     0     4   1.560
        55.430656      182.999368      282.817498     1     0     0     0     7   1.560
       130.837073      171.989644      403.870083     1     0     0     0     3   1.560
       133.236941      420.008874       94.517246     1     0     0     0     8   1.560
       179.010858       75.806024       15.256552     1     0     0     0     1   1.560
       233.588815       41.614783      234.087930     1     0     0     0     7   1.560
       294.346694      116.126140      139.632433     1     0     0     0     5   1.560
       248.055598      382.913288      301.456076     1     0     0     0     5   1.560
        25.447936      308.758783       31.809422     1     0     0     0     4   1.560
       323.714776      256.862610      103.138741     1     0     0     0     5   1.560
       206.481672      318.860458      455.454089     1     0     0     0     5   1.560
        33.295757      127.464816      405.871688     1     0     0     0     1   1.560
        52.537977       99.589846      372.391970     1     0     0     0     8   1.560
       407.338142      262.969922      333.537135     1     0     0     0     7   1.560
       170.268492      276.193122      398.084004     1     0     0     0     5   1.560
       448.578276       56.590384      100.080841     1     0     0     0     1   1.560
       375.787553      470.152659       59.497578     1     0     0     0     5   1.560
       361.040764      131.193724        6.774175     1     0     0     0     3   1.560
       205.168790      385.961919      329.328400     1     0     0     0     6   1.560
       120.259960       63.891394       82.559589     1     0     0     0     6   1.560
       112.179524      347.091622      101.539282     1     0     0     0     4   1.560
       379.259311      418.414021       70.583431     1     0     0     0     4   1.560
        81.444769      181.710383      256.218785     1     0     0     0     1   1.560
       456.717155      406.682353      112.946007     1     0     0     0     7   1.560
       446.924309       60.447076      125.553350     1     0     0     0     3   1.560
       141.834502      313.138089       28.380090     1     0     0     0     3   1.560
       166.844453      243.006252      492.941104     1     0     0     0     3   1.560
       369.031317      493.942975      410.374707     1     0     0     0     1   1.560
       489.850550      171.443996       77.945393     1     0     0     0     5   1.560
       302.918621      412.462915      103.465869     1     0     0     0     7   1.560
       312.344521      456.120168      331.079950     1     0     0     0     2   1.560
       447.849299       68.710834      391.391699     1     0     0     0     4   1.560
       299.941346      244.303139      298.222390     1     0     0     0     1   1.560
       426.939037      331.618524      463.886565     1     0     0     0     4   1.560
       295.085516      443.978230      105.226507     1     0     0     0     8   1.560
       462.201558      274.401197       27.564175     1     0     0     0     4   1.560
       366.306321      167.428226      328.417769     1     0     0     0     8   1.560
       397.621081      145.503846      195.911641     1     0     0     0     7   1.560
         6.141384      486.069940       88.699009     1     0     0     0     2   1.560
       362.091156      489.810140      119.634537     1     0     0     0     8   1.560
       492.042485      483.143120      197.733566     1     0     0     0     6   1.560
        40.663210      447.287197        6.153157     1     0     0     0     3   1.560
       221.002209      181.426101      380.906764     1     0     0     0     6   1.560
       268.399811      312.347583      303.908130     1     0     0     0     4   1.560
       355.484823      388.002921      140.352675     1     0     0     0     6   1.560
       454.332073      356.131671      148.036107     1     0     0     0     4   1.560
       124.218627      399.809734       75.105461     1     0     0     0     7   1.560
        63.635037      376.732779       99.531786     1     0     0     0     3   1.560
       341.209156      284.512124      167.202049     1     0     0     0     5   1.560
       333.683644      480.498073       72.956124     1     0     0     0     8   1.560
       153.664592      179.489654      423.603832     1     0     0     0     2   1.560
       407.396623      358.096130      177.522289     1     0     0     0     8   1.560
       363.885756      212.881266      143.146677     1     0     0     0     2   1.560
       179.348448      396.018962      272.869307     1     0     0     0     3   1.560