ITEM: TIMESTEP
0
ITEM: NUMBER OF ATOMS
        7260
ITEM: BOX BOUNDS pp pp pp
  0.0000000E+00   500.000000000000     
  0.0000000E+00   500.000000000000     
  0.0000000E+00   500.000000000000     
ITEM: ATOMS x y z f1 f2 f3 f4 orient radius
       402.448856      350.821612      252.316739     1     0     0     0     2   1.560
       175.208658       99.539095      242.785204     1     0     0     0     7   1.560
       134.815436      316.245768      407.198770     1     0     0     0     6   1.560
       142.250513      486.406390      213.293603     1     0     0     0     1   1.560
       231.740713      168.754503      465.269106     1     0     0     0     6   1.560
       217.427137      196.744107       29.872027     1     0     0     0     2   1.560
        45.848299      134.003245       76.521723     1     0     0     0     4   1.560
       165.357589      454.876946      136.978353    18     0     0     0     4   4.090
        22.432287      107.078963      313.156585     1     0     0     0     8   1.560
       146.324410      140.740806      239.760049     1     0     0     0     4   1.560
       272.819425      336.554209      373.317072     1     0     0     0     5   1.560
       230.623942      293.675539       56.870643     1     0     0     0     8   1.560
       245.951518      378.086315      486.477519     1     0     0     0     2   1.560
       180.347672      103.978535       75.440842     1     0     0     0     3   1.560
       440.210796      295.885964      200.351983     1     0     0     0     5   1.560
       180.705559      433.320366      253.169520     1     0     0     0     2   1.560
       183.609857      417.396100       86.339796     1     0     0     0     2   1.560
       128.618345      376.623546      324.641872     1     0     0     0     4   1.560
       414.802877      162.164809        7.921359     1     0     0     0     8   1.560
        12.913032      110.610205      188.574508     1     0     0     0     2   1.560
       378.076258      341.169162       85.268634     1     0     0     0     5   1.560
        97.498886      124.342447      294.851490     1     0     0     0     4   1.560
       183.130760      453.740442      322.099344     1     0     0     0     1   1.560
        77.502839       39.986474      251.815608     1     0     0     0     6   1.560
       196.720124      344.171702      163.011327     1     0     0     0     3   1.560
        32.911465      342.389674      481.332821     1     0     0     0     5   1.560
       352.484974      260.844879      176.662270     1     0     0     0     1   1.560
       195.163302      225.718162      271.874394     1     0     0     0     8   1.560
       475.352835      166.196509      206.494599     1     0     0     0     2   1.560
       404.506750      103.714193       13.873281     1     0     0     0     7   1.560
       277.314455      113.081761      499.745359     1     0     0     0     2   1.560
       376.576230      251.267194      451.538627     1     0     0     0     2   1.560
       122.662495      193.804403       82.424873     1     0     0     0     2   1.560
        17.541080       75.488672      480.926711     1     0     0     0     5   1.560
       258.594481       84.704406      238.700049     1     0     0     0     7   1.560
       153.884767      389.837506      459.239269     1     0     0     0     4   1.560
        34.419740      163.433176      403.893020     1     0     0     0     5   1.560
       460.932806      437.773298      459.008317     1     0     0     0     7   1.560
       225.075473      351.549641      380.819730     1     0     0     0     5   1.560
        43.431576      434.225401      167.536327     1     0     0     0     4   1.560
       248.036367      123.143265      427.265604     1     0     0     0     7   1.560
        31.463468      465.389187      249.180877     1     0     0     0     8   1.560
       273.139623      240.586355      306.140006     1     0     0     0     1   1.560
       272.638096        5.461038      363.670844     1     0     0     0     8   1.560
       146.869975      198.286730      168.172665     1     0     0     0     4   1.560
       403.219279      270.145233       61.936389     1     0     0     0     7   1.560
       231.226259      390.423956      329.079868     1     0     0     0     8   1.560
       229.762191      425.078248       83.833779     1     0     0     0     6   1.560
       209.986021      492.065640       97.255637     1     0     0     0     1   1.560
       141.991837      299.326832      169.450118     1     0     0     0     8   1.560
        24.293915       78.773930      341.501227     1     0     0     0     8   1.560
       420.815493      229.599606      277.118809     1     0     0     0     7   1.560
       403.057603      113.231588      442.425889     1     0     0     0     6   1.560
       370.580894      415.128574       97.025656     1     0     0     0     4   1.560
       334.491817      278.686327      246.173280     1     0     0     0     2   1.560
       355.341275      484.198784       12.937821     1     0     0     0     4   1.560
       111.970866        2.873952      487.105851     1     0     0     0     6   1.560
       480.570980      341.948388      389.712233     1     0     0     0     4   1.560
       274.260343       65.595081      287.936034     1     0     0     0     7   1.560
       218.468708       21.583721       84.667479     1     0     0     0     7   1.560
       278.843839      175.308612      312.301751     1     0     0     0     4   1.560
       321.668886      235.217797      272.709663     1     0     0     0     3   1.560
       142.426489      454.715770      265.823453     1     0     0     0     1   1.560
         3.195879      427.626149      223.640922     1     0     0     0     7   1.560
       322.631022      131.124602      363.218151     1     0     0     0     3   1.560
       499.191805      283.302634      331.028083     1     0     0     0     6   1.560
       217.927026      225.263857      289.559546     1     0     0     0     7   1.560
       146.589822       40.305587      261.264836     1     0     0     0     7   1.560
       476.535568      387.441336      391.751641     1     0     0     0     6   1.560
       214.411561      248.865549       48.592397     1     0     0     0     5   1.560
       208.294113       14.634026      232.516678     1     0     0     0     4   1.560
       129.220120      394.877292      199.022476     1     0     0     0     2   1.560
       361.239855       16.951178      207.454263     1     0     0     0     6   1.560
       252.644662        4.531870      432.467888     1     0     0     0     2   1.560
        67.525777      448.951680        8.944296     1     0     0     0     3   1.560
        82.910238      464.676961       59.986810     1     0     0     0     4   1.560
        80.760296      111.945366      258.741320     1     0     0     0     3   1.560
        73.723576      165.782385      194.213760     1     0     0     0     5   1.560
       382.382507      263.376503      302.341407     1     0     0     0     8   1.560
       334.003358      384.569094      186.940282     1     0     0     0     1   1.560
       473.884747      270.234385       49.935888     1     0     0     0     8   1.560
        44.435809      433.177510       24.033090     1     0     0     0     7   1.560
       274.501568       87.506335      283.572459     1     0     0     0     6   1.560
       326.436584      108.699433      140.642323     1     0     0     0     5   1.560
       299.792015      422.510217      141.653384     1     0     0     0     5   1.560
       122.152515      384.995289       79.131461     1     0     0     0     1   1.560
       438.200802      344.032953      161.711387     1     0     0     0     5   1.560
        66.421783      254.395832      286.362185     1     0     0     0     4   1.560
        54.473217      193.289309      441.640449     1     0     0     0     1   1.560
       136.767310      253.573304       44.262909     1     0     0     0     1   1.560
       482.973245      126.840265      489.912774     1     0     0     0     7   1.560
       284.017386      184.057005      248.131721     1     0     0     0     6   1.560
       399.929155       62.129099      473.841329     1     0     0     0     5   1.560
       493.008301      195.213507      449.019801     1     0     0     0     1   1.560
       313.245633      167.391967      130.876532     1     0     0     0     8   1.560
       438.766501      175.370573       67.998583     1     0     0     0     7   1.560
       466.833848      261.820379      280.757365     1     0     0     0     5   1.560
        17.001294      101.742753      177.127013     1     0     0     0     4   1.560
       480.782250      407.383380      106.929162     1     0     0     0     3   1.560
        25.447228      332.642899        8.824258     1     0     0     0     3   1.560
        28.137367      374.522288      345.818719     1     0     0     0     5   1.560
       267.271742       70.093077      217.880120     1     0     0     0     1   1.560
       142.822733      107.613502       49.214991     1     0     0     0     2   1.560
       140.805888      393.420271      458.192435     1     0     0     0     2   1.560
       224.075704       61.742150      100.579463     1     0     0     0     3   1.560
        80.979963      238.293743      180.697273     1     0     0     0     2   1.560
       289.517714       90.886067      135.514433     1     0     0     0     6   1.560
        23.153077      382.070910      338.729010     1     0     0     0     4   1.560
       393.081691      214.518648      156.018448     1     0     0     0     5   1.560
       462.474715      122.518974      126.867751     1     0     0     0     7   1.560
       196.535545      270.005670      353.523006     1     0     0     0     8   1.560
        37.552640      391.277577       73.804706     1     0     0     0     8   1.560
        88.468665      352.375902      216.387834     1     0     0     0     1   1.560
       289.058652       32.166248      234.861042     1     0     0     0     5   1.560
       265.235503       77.826405       93.356869     1     0     0     0     8   1.560
        87.460414       39.266674      155.781737     1     0     0     0     7   1.560
        75.531022       97.222206      225.720325     1     0     0     0     5   1.560
       186.363834      274.868732       25.752044     1     0     0     0     2   1.560
       267.308742      422.526429      129.691899     1     0     0     0     1   1.560
       164.170280      465.187021      293.437011     1     0     0     0     3   1.560
       120.197467      122.740183      260.219279     1     0     0     0     2   1.560
       312.184437      106.193354      379.678919     1     0     0     0     1   1.560
       421.115298      471.205488       10.309759     1     0     0     0     7   1.560
        20.348614      270.766520      281.114906     1     0     0     0     7   1.560
       146.534369       52.843137      455.617083     1     0     0     0     1   1.560
       318.981265      209.402520      342.447799     1     0     0     0     8   1.560
       457.836826       97.537467      441.025439     1     0     0     0     2   1.560
       120.674490      335.997936      214.620127     1     0     0     0     6   1.560
       472.754598      450.349337       70.283899     1     0     0     0     5   1.560
        84.357327      423.317765      145.665868     1     0     0     0     8   1.560
       118.829273      300.554084       79.108728     1     0     0     0     5   1.560
       407.892806      348.321201      390.059645     1     0     0     0     1   1.560
        98.880443      310.897105      208.144358     1     0     0     0     3   1.560
       473.504358      485.141469      405.642687     1     0     0     0     7   1.560
       461.486159      384.878079      155.038209     1     0     0     0     7   1.560
       177.695669      276.874289      227.669093     1     0     0     0     6   1.560
       422.957827      307.723558       31.899302     1     0     0     0     6   1.560
       112.164947      202.472024      142.640320     1     0     0     0     3   1.560
       199.240310      479.739731      477.615085     1     0     0     0     3   1.560
       464.964516      406.163880      261.302901     1     0     0     0     6   1.560
       231.483696      372.004780      236.858439     1     0     0     0     7   1.560
        49.344517      407.092658      405.928543     1     0     0     0     6   1.560
       260.759685      432.240636      100.986794     1     0     0     0     5   1.560
       467.353615       69.973088      450.960773     1     0     0     0     6   1.560
        84.295528      131.700568      266.831354     1     0     0     0     3   1.560
        37.622326       69.606857      256.035052     1     0     0     0     5   1.560
       187.813111       60.903537       18.275647     1     0     0     0     7   1.560
       420.721715      181.616361      201.599956     1     0     0     0     5   1.560
       321.225179      431.234326      498.111853     1     0     0     0     1   1.560
       418.395878      162.286378      173.914233     1     0     0     0     4   1.560
       300.063048      106.780059      123.414161     1     0     0     0     2   1.560
       463.259596       14.435436      136.789415     1     0     0     0     6   1.560
       258.921345      324.269388      410.378299     1     0     0     0     8   1.560
       298.936593      481.278928      268.894948     1     0     0     0     3   1.560
       215.133224      170.929469      172.088832     1     0     0     0     3   1.560
       267.633666      261.674699      268.157850     1     0     0     0     3   1.560
       333.896476      197.551697      115.102656     1     0     0     0     6   1.560
        64.312654      365.957090      224.524476     1     0     0     0     2   1.560
       471.970936      301.791633      317.757967     1     0     0     0     8   1.560
       288.200132      404.720228       40.222531     1     0     0     0     5   1.560
        43.562208      131.031655      115.787127     1     0     0     0     6   1.560
       103.388212      238.073142      151.449412     1     0     0     0     4   1.560
       174.010362      456.956600      244.342408     1     0     0     0     7   1.560
        90.051049      181.099129       27.151854     1     0     0     0     8   1.560
       306.127416      465.595374      446.732714     1     0     0     0     5   1.560
       290.098129      173.424412      482.471801     1     0     0     0     3   1.560
       245.235111      311.496203      419.189346     1     0     0     0     7   1.560
       357.091398      209.813083      131.756252     1     0     0     0     2   1.560
       205.677896      339.076048      165.745299     1     0     0     0     2   1.560
       348.776743      329.591378        2.869228     1     0     0     0     5   1.560
       472.685601      389.801299      481.038092     1     0     0     0     5   1.560
       105.068083        6.817344       33.047588     1     0     0     0     6   1.560
       266.263778      407.618912       28.785908     1     0     0     0     5   1.560
       106.652104       14.607027      497.198477     1     0     0     0     5   1.560
       461.490207      393.258294      456.466246     1     0     0     0     6   1.560
       436.615997       96.035589      301.721287     1     0     0     0     8   1.560
       354.537280      292.313479      412.397751     1     0     0     0     8   1.560
       141.678561       83.997996      270.731601     1     0     0     0     5   1.560
       489.018251      348.185371       82.356068     1     0     0     0     7   1.560
       379.181867      451.729379      434.613729     1     0     0     0     3   1.560
       185.398235      173.645117      379.047811     1     0     0     0     2   1.560
       388.009626       71.438855      256.481744     1     0     0     0     4   1.560
       427.234521      140.788250      401.818482     1     0     0     0     1   1.560
        44.598929      445.414605      424.371651     1     0     0     0     5   1.560
       269.036920      161.349742      282.376732     1     0     0     0     6   1.560
       342.855062      315.019193        1.476428     1     0     0     0     5   1.560
       407.450326      145.968589      142.883480     1     0     0     0     7   1.560
        67.320748      199.267456      466.235043     1     0     0     0     3   1.560
        90.417901      373.896269       67.109624     1     0     0     0     7   1.560
        23.049688      131.088119       91.331474     1     0     0     0     4   1.560
         7.776683      477.505687       47.630469     1     0     0     0     7   1.560
        75.391367      319.514099      158.831562     1     0     0     0     7   1.560
       387.152334      381.358277      352.326820     1     0     0     0     4   1.560
       170.284461      163.817745      402.359945     1     0     0     0     5   1.560
        61.437436      227.375100      252.848146     1     0     0     0     2   1.560
        62.191762      154.083810      257.187659     1     0     0     0     2   1.560
       272.721946      239.818446      243.923405     1     0     0     0     2   1.560
       241.166782       46.487060      118.898424     1     0     0     0     7   1.560
       327.052115      158.750254      465.549867     1     0     0     0     5   1.560
       318.538770      352.136869       61.921317     1     0     0     0     5   1.560
       188.164546       92.579515      130.877673     1     0     0     0     3   1.560
         6.175388      295.882519      369.807102     1     0     0     0     8   1.560
       441.935571      102.626560      433.416007     1     0     0     0     2   1.560
       464.972253      160.850733      191.314976     1     0     0     0     8   1.560
       106.481875       63.096591      215.060581     1     0     0     0     8   1.560
        66.023544      373.292769      360.788282     1     0     0     0     4   1.560
        19.392474      331.461236      230.145839     1     0     0     0     2   1.560
       149.852919      157.060802      161.818699     1     0     0     0     6   1.560
       469.670669      191.482641      279.069745     1     0     0     0     4   1.560
       445.385359      461.572849      296.781796     1     0     0     0     3   1.560
        97.704101      148.431940      201.150226     1     0     0     0     3   1.560
        89.304306      380.849257      480.374156     1     0     0     0     2   1.560
       191.163496      493.704076      408.139193     1     0     0     0     8   1.560
       462.598061       66.803960        4.622266     1     0     0     0     7   1.560
       460.913945      408.653998        6.128489     1     0     0     0     2   1.560
       446.443350      216.226205       59.027567     1     0     0     0     3   1.560
       159.150625        8.321111       34.976017     1     0     0     0     2   1.560
       117.269241      389.679870      340.220507     1     0     0     0     3   1.560
       275.126791      186.460873      276.992809     1     0     0     0     3   1.560
       239.955794      132.700518       66.898571     1     0     0     0     4   1.560
       495.810104      291.368003       12.976290     1     0     0     0     1   1.560
        87.750802      182.119200       75.786908     1     0     0     0     5   1.560
        92.782277      148.995122       25.241124     1     0     0     0     8   1.560
       137.191946      171.783710      230.114973     1     0     0     0     6   1.560
        86.690036      404.298598        6.583479     1     0     0     0     3   1.560
       134.127694       69.593732      261.058844     1     0     0     0     7   1.560
        14.231818      159.389953      180.419993     1     0     0     0     7   1.560
       483.207628      190.936819      461.919200     1     0     0     0     1   1.560
       457.778134      420.686038      377.297067     1     0     0     0     3   1.560
       248.437148      213.159400       13.157642     1     0     0     0     3   1.560
        31.031958      258.746464      426.668446     1     0     0     0     8   1.560
        98.205782      307.994248      450.229969     1     0     0     0     1   1.560
       434.585834      116.228609      445.341192     1     0     0     0     8   1.560
         5.737499      279.598793      249.626603     1     0     0     0     2   1.560
       216.733662      105.382786      214.071133     1     0     0     0     3   1.560
       150.156873      329.840914        6.719160     1     0     0     0     5   1.560
       289.580540      403.486301      475.833406     1     0     0     0     8   1.560
       150.434927      232.248162      443.482831     1     0     0     0     5   1.560
       173.599513      394.383276      123.269009     1     0     0     0     3   1.560
       267.955965      395.397033      236.665783     1     0     0     0     6   1.560
         0.822150      227.094100      482.097577     1     0     0     0     7   1.560
       339.534442      315.697816      203.612501     1     0     0     0     5   1.560
       238.584435      210.719257      225.282080     1     0     0     0     5   1.560
        94.331228       53.005260      101.044296     1     0     0     0     3   1.560
       403.695503      151.966474      302.457653     1     0     0     0     8   1.560
       484.478325      489.205561      101.577210     1     0     0     0     6   1.560
       140.375111      466.620075      457.441025     1     0     0     0     3   1.560
       111.280687      161.823115      191.025366     1     0     0     0     1   1.560
       228.267192      495.336631      356.567529     1     0     0     0     3   1.560
       206.616902      333.723849       33.301069     1     0     0     0     6   1.560
       353.017655      468.036260      245.308475     1     0     0     0     4   1.560
        87.503839      494.125863      147.195549     1     0     0     0     4   1.560
       282.777255      261.553789      350.834033     1     0     0     0     8   1.560
        21.502190      100.457300      403.562115     1     0     0     0     2   1.560
       299.454764      373.757619      165.887054     1     0     0     0     7   1.560
       426.663850      330.371878      311.459574     1     0     0     0     2   1.560
        53.826715      457.825668      465.469978     1     0     0     0     1   1.560
       447.361027      424.577383      422.886458     1     0     0     0     1   1.560
        77.979177      131.407477       43.432072     1     0     0     0     5   1.560
       186.316781      254.112542       43.263442     1     0     0     0     7   1.560
       294.994146      222.089337      231.781219     1     0     0     0     7   1.560
       215.981628      113.040269       41.659080     1     0     0     0     1   1.560
        97.423094      355.883287      311.044944     1     0     0     0     3   1.560
       258.089936      499.782102      459.702659     1     0     0     0     6   1.560
        12.753864      328.371651      322.218626     1     0     0     0     1   1.560
       439.037912      256.866794      416.184973     1     0     0     0     1   1.560
       433.972382      362.106499       89.699005     1     0     0     0     1   1.560
        19.206279       82.908276      272.027410     1     0     0     0     1   1.560
       380.994266      111.936789      277.722033     1     0     0     0     1   1.560
        81.914513      150.095879      259.406491     1     0     0     0     6   1.560
       127.704211       40.498332      473.867709     1     0     0     0     1   1.560
       178.464152       46.036556      476.163126     1     0     0     0     1   1.560
       253.413788       22.392380       30.041346     1     0     0     0     2   1.560
        89.924248       37.833438      109.529932     1     0     0     0     1   1.560
       479.420254      232.697116      219.226477     1     0     0     0     5   1.560
       229.300983      452.843056       11.873277     1     0     0     0     1   1.560
       154.840314       79.787254       27.598344     1     0     0     0     7   1.560
       312.502558      302.168645      386.658240     1     0     0     0     2   1.560
       451.304279      496.085716      152.711303     1     0     0     0     1   1.560
       458.460313      187.275923      433.274392     1     0     0     0     5   1.560
       481.799546       26.601882      472.346211     1     0     0     0     3   1.560
        41.623705      433.095951       43.775105     1     0     0     0     2   1.560
       153.298765      149.042791      219.672957     1     0     0     0     3   1.560
        16.170220      346.037332       69.798771     1     0     0     0     5   1.560
        96.362075      210.541888      437.764095     1     0     0     0     7   1.560
       476.219151      479.882495      456.728456     1     0     0     0     6   1.560
       206.580638       33.779982      405.169169     1     0     0     0     7   1.560
       362.836776      360.036571       81.880189     1     0     0     0     1   1.560
        74.553910      386.642204      212.408458     1     0     0     0     2   1.560
       287.903803      234.163343      105.769400     1     0     0     0     3   1.560
       219.263067      378.577407      470.535062     1     0     0     0     5   1.560
       447.795856      347.948976      379.230019     1     0     0     0     1   1.560
        64.577945      293.523425      133.565108     1     0     0     0     1   1.560
       262.388710      435.761002       93.225499     1     0     0     0     5   1.560
       371.967780      220.878370       49.043210     1     0     0     0     8   1.560
       158.694190      144.808064      121.098523     1     0     0     0     8   1.560
       452.966192      395.768962      457.895319     1     0     0     0     6   1.560
        45.641691       76.924608      241.059852     1     0     0     0     6   1.560
       119.465038      358.962734        6.433879     1     0     0     0     1   1.560
       119.220262      426.219139      330.937811     1     0     0     0     1   1.560
       161.220395        7.789677      256.641034     1     0     0     0     7   1.560
       289.155580       12.031991       25.085479     1     0     0     0     2   1.560
       332.502033       23.183463      185.242922     1     0     0     0     8   1.560
       336.567300      467.490251      422.584498     1     0     0     0     3   1.560
       157.559873      289.801052      452.258416     1     0     0     0     5   1.560
       444.981696      322.777245      406.972033     1     0     0     0     8   1.560
       343.271780      398.349836      235.722718     1     0     0     0     7   1.560
        11.439230      169.906845       36.701444     1     0     0     0     1   1.560
       140.610520       30.845528      493.513678     1     0     0     0     1   1.560
        56.148532      209.408905      375.133148     1     0     0     0     2   1.560
        29.628445      216.351003      358.984949     1     0     0     0     7   1.560
       281.316055      336.924622      263.650983     1     0     0     0     2   1.560
       195.622760       98.193598      198.581514     1     0     0     0     3   1.560
       345.677139      285.417051      171.439735     1     0     0     0     3   1.560
        61.348932      381.324196      408.867604     1     0     0     0     5   1.560
       333.408234      373.706458       86.038949     1     0     0     0     5   1.560
       431.587300      177.625621      217.172603     1     0     0     0     4   1.560
        75.587364       95.087723      249.631767     1     0     0     0     2   1.560
       459.788958      341.134199      113.906284     1     0     0     0     1   1.560
       242.250558        0.017762      393.320670     1     0     0     0     1   1.560
        72.961947      296.178932      107.617535     1     0     0     0     1   1.560
       407.788255      218.475675      443.435034     1     0     0     0     1   1.560
       130.914707       33.916596      349.410868     1     0     0     0     3   1.560
       140.372167      319.213532      328.191256     1     0     0     0     1   1.560
        49.986284      411.479612      389.397871     1     0     0     0     3   1.560
        31.808420      293.960193      387.318724     1     0     0     0     6   1.560
        76.370506      270.747255      135.419521     1     0     0     0     8   1.560
       130.743749       29.689938      166.535781     1     0     0     0     6   1.560
       209.082151      453.575706      187.580011     1     0     0     0     6   1.560
        69.105008      196.633756      475.207028     1     0     0     0     8   1.560
        67.379836      141.748314      189.587400     1     0     0     0     1   1.560
       427.537940      109.233510      405.983937     1     0     0     0     8   1.560
       182.066188      434.792455      106.208585     1     0     0     0     8   1.560
       189.300720      236.760912      344.902938     1     0     0     0     7   1.560
       174.410970      311.565523        7.886639     1     0     0     0     4   1.560
       353.666597      402.927245      132.349570     1     0     0     0     3   1.560
       462.470951      245.825440      154.398027     1     0     0     0     5   1.560
       258.052988       18.101610      253.609811     1     0     0     0     3   1.560