ITEM: TIMESTEP
0
ITEM: NUMBER OF ATOMS
        6784
ITEM: BOX BOUNDS pp pp pp
  0.0000000E+00   500.000000000000     
  0.0000000E+00   500.000000000000     
  0.0000000E+00   500.000000000000     
ITEM: ATOMS x y z nV nH f3 f4 orient
       342.595974      352.785642      494.264699     1     0     0     0     3
       264.914137      280.664565      281.369483     1     0     0     0     3
       408.634373      176.798034      473.563488     1     0     0     0     7
       114.513548      228.001545       60.075324     1     0     0     0     2
       268.222734       45.463438      492.266852     1     0     0     0     4
       199.903253      284.212941      307.765859     1     0     0     0     2
       477.409613      104.189610       38.552885     1     0     0     0     3
       218.714073      399.109962      309.909579     1     0     0     0     5
       294.396557      273.514690      223.339140     1     0     0     0     4
        79.053673      235.212760      157.655688     1     0     0     0     8
       444.979452      296.658550      176.217293     1     0     0     0     8
        10.380470      245.658187      260.278541     1     0     0     0     2
       227.134963      407.782825      279.501588     1     0     0     0     1
       276.603891      272.619583      439.780909     1     0     0     0     1
       213.739370      274.102538      171.975626     1     0     0     0     6
       326.745729      175.740469      479.712149     1     0     0     0     3
       234.252898      435.704970      330.489860     1     0     0     0     5
       123.734452      424.327495      118.387816     1     0     0     0     7
       318.986573      446.903193      272.562054     1     0     0     0     6
       391.738631      452.617246       53.614260     1     0     0     0     6
       213.967290      168.291512      309.021076     1     0     0     0     3
       199.672807       61.313594      345.409098     1     0     0     0     1
        79.875972      404.813262      236.913648     1     0     0     0     3
       407.557636      247.277406      385.674874     1     0     0     0     6
       398.692599      231.470721       79.441000     1     0     0     0     6
       289.310765      450.203507      286.595634     1     0     0     0     3
       146.491514       86.476344      236.430715     1     0     0     0     6
        22.668094      382.883360      228.617143     1     0     0     0     5
       124.258097      436.241870      476.998880     1     0     0     0     4
       185.251174       96.740618      159.963263     1     0     0     0     3
       170.789380      253.147814      236.697688     1     0     0     0     5
       397.610106      104.311260       78.615796     1     0     0     0     2
       111.466056      386.213745      179.727801     1     0     0     0     5
       189.873980      133.178749      294.592106     1     0     0     0     1
       329.897300      237.527590      120.333019     1     0     0     0     7
       178.241372       19.583218      140.261534     1     0     0     0     7
       491.483439      266.173222      197.586125     1     0     0     0     8
       319.992116      123.954922      433.729141     1     0     0     0     3
       464.091906      276.305551      295.184618     1     0     0     0     6
        56.568948      289.448351      308.946691     1     0     0     0     5
       225.016491      115.831370      370.522864     1     0     0     0     7
       428.215662      147.354419      225.046707     1     0     0     0     6
       329.925931      118.731739      201.277466     1     0     0     0     8
       114.533704       60.446438      344.464257     1     0     0     0     1
       306.604869      444.930127       88.589207     1     0     0     0     7
        24.005328      367.452146      389.123907     1     0     0     0     4
       273.068256      172.637491      300.859142     1     0     0     0     4
        49.977778      468.887171      385.249152     1     0     0     0     4
       294.942792       17.726097      412.211047     1     0     0     0     6
       295.061187      439.079179      409.581453     1     0     0     0     8
       497.439826      336.466997      270.918385     1     0     0     0     3
        22.823929      406.803817      330.866286     1     0     0     0     4
       423.332629       77.614637      170.539716     1     0     0     0     6
        96.311826      301.846131      414.357553     1     0     0     0     2
       424.766881      273.546002       50.057631     1     0     0     0     4
        56.263259       64.076865      196.160782     1     0     0     0     5
       260.146004       14.400261      191.087134     1     0     0     0     5
       120.404007      346.757985      369.863412     1     0     0     0     4
       120.494339       44.471258      446.779067     1     0     0     0     1
       261.996988      378.582367      433.660193     1     0     0     0     6
       417.012514      194.400287       35.121431     1     0     0     0     3
       388.967652      307.985441       64.061512     1     0     0     0     2
       250.872395      127.463110      306.531916     1     0     0     0     8
       286.026776      396.870511      181.901447     1     0     0     0     7
       326.166118      157.689856      362.962620     1     0     0     0     2
       211.550599      495.248211      241.760482     1     0     0     0     5
       435.243069      107.324971       88.411195     1     0     0     0     1
       155.136719      150.589581      424.167520     1     0     0     0     4
        36.994379      281.618835      280.598491     1     0     0     0     2
       370.209480      413.958445      257.131866     1     0     0     0     4
       309.185084      171.661035      494.352300     1     0     0     0     6
       228.448899      232.329782      386.577517     1     0     0     0     7
       249.872008      206.011287       62.787787     1     0     0     0     1
       364.211559      446.066888      427.159205     1     0     0     0     4
       332.297443      390.494804      184.190022     1     0     0     0     4
       199.750631      113.125962      236.952244     1     0     0     0     5
       320.619375       36.506252       54.175173     1     0     0     0     2
       448.713073      401.958748      204.230253     1     0     0     0     2
       115.662119      233.232893      311.630826     1     0     0     0     6
       386.915727      416.605851      480.023868     1     0     0     0     4
       247.711387      426.717238      401.288817     1     0     0     0     6
       346.253858      430.783590      221.975340     1     0     0     0     2
       409.191107      133.535572      264.991430     1     0     0     0     1
        32.059159      427.735933      430.262046     1     0     0     0     1
       434.604237       55.859281      354.019911     1     0     0     0     2
       375.591916      138.762748      393.758390     1     0     0     0     8
       134.844985      211.233422      426.261032     1     0     0     0     3
       210.353606      412.011450      240.972652     1     0     0     0     1
       360.967755      102.772241       47.557810     1     0     0     0     6
       298.068255      325.442832      380.401005     1     0     0     0     2
       420.158714      399.153343      190.719964     1     0     0     0     3
       228.897003      476.020710      465.783761     1     0     0     0     1
       153.154814       12.969760      247.325706     1     0     0     0     4
       324.791459      467.388887      130.343646     1     0     0     0     7
       390.025966      487.073259      142.883878     1     0     0     0     5
         9.018685      145.044777       16.046555     1     0     0     0     1
       437.531931      361.496819      141.249401     1     0     0     0     6
       336.990638      313.375628        6.011194     1     0     0     0     4
       399.472720      104.763760      140.078341     1     0     0     0     5
       234.590951      237.574812      102.361443     1     0     0     0     8
       190.276082       56.763736      446.095145     1     0     0     0     1
       480.730531       51.917850      298.510335     1     0     0     0     6
       438.953773      342.846741      178.500054     1     0     0     0     8
       401.667224      490.574285      439.268341     1     0     0     0     4
       400.596790      187.637405       68.725945     1     0     0     0     6
        45.179370      327.208400      498.371676     1     0     0     0     6
       415.107228      420.595660      212.983464     1     0     0     0     2
       276.896700       87.095225       77.797298     1     0     0     0     1
       479.633247      440.588881      399.443183     1     0     0     0     3
       235.829674      412.149428       21.588492     1     0     0     0     5
       110.646513      205.903304      205.730338     1     0     0     0     1
       421.805279      209.298242       79.659176     1     0     0     0     7
       393.341687      240.940588       81.002576     1     0     0     0     3
       408.859117      259.613765      466.955032     1     0     0     0     6
       180.398239      377.298353      298.441492     1     0     0     0     3
       201.669565      438.154429      389.727424     1     0     0     0     3
       348.244424      197.615174      216.467982     1     0     0     0     6
       451.620715      192.961935      227.211847     1     0     0     0     4
       372.120355      169.894257      250.394839     1     0     0     0     1
       451.946181      486.430895      475.674200     1     0     0     0     1
       236.943492      357.222941      281.079313     1     0     0     0     7
       166.946562      286.528789      132.397664     1     0     0     0     8
        34.199208      362.935095      329.436080     1     0     0     0     5
        69.308582       58.047071      147.419286     1     0     0     0     2
       458.041785      143.297266      281.488604     1     0     0     0     2
       230.522868       70.778895      379.750528     1     0     0     0     5
       168.229824      226.257969      296.774687     1     0     0     0     1
       493.195619      453.975238      324.579225     1     0     0     0     4
       168.331096      497.721414      325.846455     1     0     0     0     3
       203.458184      450.107627      388.561071     1     0     0     0     6
       328.630920       13.879879       49.572658     1     0     0     0     7
        98.607939      474.238946      430.209437     1     0     0     0     4
       205.445849      221.563649      300.530696     1     0     0     0     1
       449.721019      362.070167      113.427083     1     0     0     0     7
       150.204953      327.540621      250.462437     1     0     0     0     5
         4.665770      137.076693       17.073614     1     0     0     0     2
       315.900543      255.145134        2.304391     1     0     0     0     6
       173.459485      406.169565       66.846030     1     0     0     0     5
        15.908598      194.917067      403.861101     1     0     0     0     5
        90.993535      478.616660      245.023041     1     0     0     0     4
       350.310548      126.623658       97.350263     1     0     0     0     2
       492.634657      397.352613      122.210773     1     0     0     0     7
         2.535371      450.057759      395.676458     1     0     0     0     6
        10.746651      430.960805      286.851847     1     0     0     0     4
       283.706626       89.965114      139.707267     1     0     0     0     7
        47.867582      145.382715      478.945363     1     0     0     0     3
       270.973764      440.488029      196.424940     1     0     0     0     7
       296.089315      410.848794      131.939186     1     0     0     0     5
       217.478318      269.618029      100.825799     1     0     0     0     7
        71.795737      344.932967       96.170752     1     0     0     0     2
       302.849942      385.708466      284.912810     1     0     0     0     4
        78.742752      420.723400      431.289656     1     0     0     0     3
       489.877776      170.147053      234.688245     1     0     0     0     7
       281.989938      166.390874      342.521536     1     0     0     0     8
       293.782151       90.914788      384.930605     1     0     0     0     8
       270.198673      297.771116      480.363762     1     0     0     0     6
       391.858625      118.521113      191.407048     1     0     0     0     4
       409.035350       48.003118      220.465199     1     0     0     0     1
        15.100560      438.797419      431.715968     1     0     0     0     8
       466.926331      156.906047      409.737298     1     0     0     0     3
       207.286020      190.746464      103.688447     1     0     0     0     1
       138.469121      299.391358      124.098406     1     0     0     0     4
       229.998462      414.468211       16.108244     1     0     0     0     1
       435.225612      479.674862      235.562378     1     0     0     0     5
       447.010158      292.414625      208.024856     1     0     0     0     4
       410.267123      329.370859       67.090606     1     0     0     0     2
       332.161824       66.526766      219.087758     1     0     0     0     6
       378.991124      371.029082      412.258029     1     0     0     0     6
       387.413572      155.433505      150.034652     1     0     0     0     3
       311.287423      137.968021      135.044925     1     0     0     0     6
       160.472053      169.733759      288.682293     1     0     0     0     4
       102.428046      349.173988      419.158683     1     0     0     0     4
       238.751907      314.212486      100.233948     1     0     0     0     3
        86.276990      255.319495        8.787839     1     0     0     0     6
       251.699653       81.669666      108.407882     1     0     0     0     8
       302.672325      421.616275      313.215171     1     0     0     0     3
       225.054528      416.936446      411.370247     1     0     0     0     5
       395.107688      150.467022      136.010237     1     0     0     0     7
       405.265984      202.732496       66.302284     1     0     0     0     2
        19.027728      182.848384       27.523603     1     0     0     0     7
       167.653008      169.848093      371.741134     1     0     0     0     3
       185.408839        4.541931      101.019115     1     0     0     0     8
       249.317350      117.634443       93.285901    88     0     0     0     2
       165.313228       11.185845       68.530564     1     0     0     0     8
       380.184604      353.076342      325.729492     1     0     0     0     3
       481.300007      314.685815       16.830658     1     0     0     0     2
       491.164447      247.275201       68.192764     1     0     0     0     2
       331.064060      210.562295      272.758249     1     0     0     0     3
       421.690441      426.775740      318.621568     1     0     0     0     4
       305.259387      302.182832      399.661081     1     0     0     0     1
       313.941539      424.371271       23.097168     1     0     0     0     6
       483.229167      462.621148      198.171300     1     0     0     0     7
       321.739718      307.458320      453.818934     1     0     0     0     2
       203.093682      172.664814      210.384459     1     0     0     0     2
       346.121406      327.706138      156.763718     1     0     0     0     3
       260.585796       66.405877      333.584078     1     0     0     0     5
       225.144079       92.696938      230.856294     1     0     0     0     4
       320.241656       87.447312      280.581314     1     0     0     0     8
       252.557945      227.711283      210.572793     1     0     0     0     3
       289.894178      121.725351      318.044096     1     0     0     0     4
       304.971669       46.262539      332.865207     1     0     0     0     6
       142.674019       46.065608      115.167824     1     0     0     0     3
       343.538847      337.437912      479.019290     1     0     0     0     2
       444.276043      318.919043      401.612935     1     0     0     0     4
       311.037568      191.156584      384.088250     1     0     0     0     4
       428.844831      112.799350      445.878686     1     0     0     0     3
       482.763575      317.170513      117.118814     1     0     0     0     4
       119.095524      383.067278      179.738874     1     0     0     0     6
         8.338352      396.495544      409.157390     1     0     0     0     5
       122.288937      102.021813      186.748805     1     0     0     0     3
       200.420724      330.784294      119.102124     1     0     0     0     7
       362.956939      409.434965      247.531774     1     0     0     0     2
       487.802609       30.758777      384.989157     1     0     0     0     7
       104.360819      245.911501      499.739755     1     0     0     0     6
       352.197782       72.595254      168.840612     1     0     0     0     4
       497.550469      410.258853      325.677370     1     0     0     0     3
       327.950949       74.114135      386.333375     1     0     0     0     3
       343.079133      334.629365      424.732091     1     0     0     0     4
       455.187883      208.338050      267.613837     1     0     0     0     5
       236.664535      394.915603      444.849792     1     0     0     0     8
        78.067969      345.444615       73.012751     1     0     0     0     4
       283.345430      197.032606      105.517491     1     0     0     0     8
       359.069527      390.628355      435.908540     1     0     0     0     8
        86.094624      498.976841      214.630677     1     0     0     0     5
       266.813210      415.157278        4.877709     1     0     0     0     3
       187.498846       66.574481      191.149438     1     0     0     0     6
       174.099929      179.666927      240.115976     1     0     0     0     2
       297.674133       20.677384      414.306796     1     0     0     0     5
       389.824570       48.754443      356.886965     1     0     0     0     1
       143.795585      175.938151      378.853455     1     0     0     0     6
       346.149024       52.828364      333.404749     1     0     0     0     3
       439.629514      210.524338       95.912363     1     0     0     0     8
       496.923937      139.603720      270.249295     1     0     0     0     6
       271.478790      288.028532      423.848730     1     0     0     0     6
       307.886651      343.199093      225.492026     1     0     0     0     4
       352.689158        8.309848      394.447305     1     0     0     0     2
       250.875365      363.331608      111.586077     1     0     0     0     6
       230.998994       91.111408        6.844261     1     0     0     0     4
       382.343142      361.149810      129.172644     1     0     0     0     7
       214.881628      120.203937      393.944153     1     0     0     0     4
       211.781072      372.466448      337.077948     1     0     0     0     7
       289.462315      306.853616      344.886440     1     0     0     0     2
       499.256938      163.328090       90.216888     1     0     0     0     8
       431.428064      441.826457      328.963212     1     0     0     0     3
       341.334066      382.280494      162.804892     1     0     0     0     4
       170.438409       37.260088      232.424361     1     0     0     0     7
        59.915961      452.162434      452.059333     1     0     0     0     5
       154.063922      175.042605      423.079001     1     0     0     0     3
       148.711046       81.604776      361.555830     1     0     0     0     8
        97.549680      435.097266       80.053527     1     0     0     0     5
       114.693182      126.036005      261.582199     1     0     0     0     3
        35.734451      360.794259      249.878545     1     0     0     0     5
       103.573269       32.014232      201.061114     1     0     0     0     3
        52.580868      476.178367      389.178348     1     0     0     0     2
       440.051828       72.339848      458.527338     1     0     0     0     7
       249.994620      369.779844      279.135132     1     0     0     0     3
       272.342075      233.521731      486.530070     1     0     0     0     6
        43.278793      104.000392      183.680813     1     0     0     0     8
       364.022526      448.660231      377.096089     1     0     0     0     1
       256.945289      233.938364      377.741720     1     0     0     0     1
       262.298964      408.304662      339.309858     1     0     0     0     3
       122.917706      225.606379      300.285719     1     0     0     0     5
       348.646312      166.087622      444.144029     1     0     0     0     8
        52.118947      483.699883      224.499710     1     0     0     0     6
       264.404623      269.279054      151.929503     1     0     0     0     8
         7.161232      380.383659      274.280868     1     0     0     0     8
       139.400266      446.958612      424.411108     1     0     0     0     3
       411.371656      165.298722      431.418449     1     0     0     0     4
       289.611435      186.015534      400.322378     1     0     0     0     5
       243.675260      196.478080      483.601213     1     0     0     0     7
       476.409977      455.262682      135.904492     1     0     0     0     8
       364.570119      174.788447       30.340372     1     0     0     0     4
        96.654192      331.089501       42.260676     1     0     0     0     8
       145.802130      391.954666      335.876415     1     0     0     0     3
       300.858288      264.542027      234.742430     1     0     0     0     6
       152.706715      236.601317      246.598218     1     0     0     0     5
       136.908544      368.142418        0.444580     1     0     0     0     4
       283.733379      164.887627      404.642529     1     0     0     0     1
       327.880671      483.626859       91.030656     1     0     0     0     6
       119.364663      424.200744      385.078299     1     0     0     0     1
       268.413521      360.645474      485.956995     1     0     0     0     7
        15.123919      138.486677       10.065543     1     0     0     0     4
       499.377528      201.738148      146.098425     1     0     0     0     2
       383.769033      363.441403      405.066617     1     0     0     0     2
       169.945859       26.021458      285.773182     1     0     0     0     3
       495.655828       90.033009      399.759077     1     0     0     0     7
       474.378474       59.416403      422.858951     1     0     0     0     1
       240.273609      355.216861      205.738996     1     0     0     0     6
       356.736921      109.022851       89.863540     1     0     0     0     8
       363.557986      359.134555      173.807259     1     0     0     0     5
       480.189558      105.333262      416.062165     1     0     0     0     8
       158.539234       14.737706      430.630031     1     0     0     0     8
       484.697512      433.530871       73.207802     1     0     0     0     3
       418.834738      465.994008      326.781939     1     0     0     0     6
       455.358499      268.681944      394.401700     1     0     0     0     3
       111.272289       58.885673      198.397003     1     0     0     0     4
       476.890343      414.634606      474.916162     1     0     0     0     8
         6.312001      218.544084      100.054329     1     0     0     0     3
       110.422398      433.574909       76.068370     1     0     0     0     8
       116.368649      222.659987      271.580614     1     0     0     0     7
       269.628222      315.178998        4.955061     1     0     0     0     6
       398.179602      100.231215        4.847560     1     0     0     0     8
       102.165262      304.686479      149.790528     1     0     0     0     3
       426.898074       51.934458      341.644631     1     0     0     0     1
       288.773706      460.591944       68.516259     1     0     0     0     7
       410.112006      428.897476      119.764238     1     0     0     0     5
       324.213482      393.781622      371.288594     1     0     0     0     2
       438.378038      225.026997      422.678466     1     0     0     0     3
       447.434137      354.371649      180.156240     1     0     0     0     7
       281.061603      177.801074      406.554181     1     0     0     0     3
        49.626645      360.899640      384.969121     1     0     0     0     4
       272.238572      434.124686      426.752441     1     0     0     0     8
       135.765997       78.644649      270.786958     1     0     0     0     7
       452.638087      469.801890      374.254266     1     0     0     0     2
        23.895861      108.287442      170.528970     1     0     0     0     1
       229.183357      278.418548      256.063935     1     0     0     0     1
        85.259378      391.321588      411.344810     1     0     0     0     4
       415.844044      334.413727      378.461290     1     0     0     0     1
       109.698920      274.438722      379.393524     1     0     0     0     6
       484.033570      487.343182      235.214456     1     0     0     0     7
       122.876316      398.533013      145.422163     1     0     0     0     3
         4.252105      299.566233      297.286596     1     0     0     0     8
       476.960425      391.081938      178.881436     1     0     0     0     8
       143.175346      119.550830        6.039652     1     0     0     0     6
       254.604624      472.539723      170.035666     1     0     0     0     1
        37.611317       84.698247      438.191489     1     0     0     0     4
       378.241752      457.602581      141.701528     1     0     0     0     6
       479.238443      448.184395       28.198206     1     0     0     0     7
       133.917833      182.197791      198.684179     1     0     0     0     8
        69.539196      112.177310      481.269672     1     0     0     0     8
       301.286000      195.326481      243.535311     1     0     0     0     8
       264.610019      170.751243      193.024847     1     0     0     0     6
       205.345123      340.890743      436.458927     1     0     0     0     3
       470.495517      471.414111      488.031285     1     0     0     0     7
       360.440213       62.289501      443.979015     1     0     0     0     5
       120.428484      254.786089       32.865427     1     0     0     0     2
       224.296391      482.048211      483.141877     1     0     0     0     7
       289.863369      321.292936      146.919143     1     0     0     0     1
       442.957148      453.461349      150.366423     1     0     0     0     2
       253.978869       87.587441      251.309745     1     0     0     0     6
        42.704998      232.738360      243.245577     1     0     0     0     4
        89.916092      448.506993      292.378371     1     0     0     0     3
       486.303644      411.666611      278.061307     1     0     0     0     1
       206.459044      375.973467      110.286129     1     0     0     0     6
       378.251382      173.718870       53.597045     1     0     0     0     6
       172.157274      447.414167      435.158679     1     0     0     0     2
       339.770255      328.715490       66.245320     1     0     0     0     6
        10.334790      147.403135      466.437658     1     0     0     0     4
       178.251905      135.903846      242.819681     1     0     0     0     2
       244.160562      225.498273       55.817943     1     0     0     0     6
       343.235213      104.807410      444.969509     1     0     0     0     7
       222.636684       80.069276      310.677432     1     0     0     0     3
       439.396152      112.556276      174.632512     1     0     0     0     5
       473.812535      296.716964       42.576688     1     0     0     0     5
       258.354613      149.612020      155.611248     1     0     0     0     6
        81.581581      355.570376       71.557092     1     0     0     0     3
       138.081570      304.224255      144.517467     1     0     0     0     4
       103.934618      246.897707      428.191978     1     0     0     0     1
       303.462453       54.562263      222.669479     1     0     0     0     5
       203.079175      405.758236      479.828217     1     0     0     0     4
        76.648697      483.781426      194.655949     1     0     0     0     6
        19.361907      202.233555      466.390022     1     0     0     0     4
       369.765747      123.016528       26.014575     1     0     0     0     5
       421.914345      272.130382      247.315227     1     0     0     0     2
       224.100910      492.459478      379.383903     1     0     0     0     3
       450.591601      181.027960       50.589884     1     0     0     0     2
        92.997892      107.643076      387.486911     1     0     0     0     7
       370.635330      256.981609      301.901900     1     0     0     0     5
       315.118144      308.391878      255.534820     1     0     0     0     6
       367.515935      426.595481      144.995072     1     0     0     0     8
       266.159435       45.542660      173.556697     1     0     0     0     3
       428.138452       18.967330      476.364981     1     0     0     0     2