ITEM: TIMESTEP
0
ITEM: NUMBER OF ATOMS
        6765
ITEM: BOX BOUNDS pp pp pp
  0.0000000E+00   500.000000000000     
  0.0000000E+00   500.000000000000     
  0.0000000E+00   500.000000000000     
ITEM: ATOMS x y z f1 f2 f3 f4 orient radius
       245.472796       24.921638      216.123085     1     0     0     0     6   1.560
        67.119878      329.878387      100.380127     1     0     0     0     6   1.560
       155.938755      421.553805      251.168678     1     0     0     0     4   1.560
       328.681484      247.421114      340.747633     1     0     0     0     3   1.560
       162.532730      428.959426       39.815539     1     0     0     0     3   1.560
        89.785611       86.012129      137.042680     1     0     0     0     5   1.560
       471.261360      436.214250      359.167344     1     0     0     0     4   1.560
       217.735167       28.526493      116.496592     1     0     0     0     5   1.560
        10.095571      482.777473      183.494793     1     0     0     0     6   1.560
       200.837620      366.608535      391.516555     1     0     0     0     6   1.560
        42.510415      241.495309      380.449665     1     0     0     0     8   1.560
       361.282274      301.982659      438.626217     1     0     0     0     6   1.560
       160.336499      223.315895      442.009394     1     0     0     0     4   1.560
        12.304683      218.532697      200.024216     1     0     0     0     2   1.560
       323.643165      277.721208      288.635195     1     0     0     0     5   1.560
       140.090519      345.992523      413.565843     1     0     0     0     6   1.560
       144.777540      298.354046      268.251757     1     0     0     0     5   1.560
       254.026076      144.704142        4.234058     1     0     0     0     3   1.560
       127.946481      300.282056      299.558427     1     0     0     0     4   1.560
       388.904910      227.330840      391.287419     1     0     0     0     1   1.560
       101.077896      371.768109      277.205999     1     0     0     0     7   1.560
       462.166809       30.948852      291.864555     1     0     0     0     4   1.560
       389.683757      261.839424      362.611061     1     0     0     0     1   1.560
       493.660858      464.885352      431.027192     1     0     0     0     1   1.560
       132.271529       39.387840      238.036715     1     0     0     0     5   1.560
       257.415474      450.982648      447.819373     1     0     0     0     6   1.560
        46.855067       24.269024      361.974044     1     0     0     0     4   1.560
        99.085199      479.717796      276.137385     1     0     0     0     3   1.560
        93.273850      172.742370      350.872475     1     0     0     0     8   1.560
       207.757974      498.217386      494.959382     1     0     0     0     6   1.560
       481.236980      131.027225      284.121205     1     0     0     0     8   1.560
       318.409476      417.371923      179.238772     1     0     0     0     7   1.560
       427.091134      375.180533       62.674223     1     0     0     0     4   1.560
        38.659251      158.438992      305.747906     1     0     0     0     4   1.560
       456.407866      271.408102       41.627385     1     0     0     0     1   1.560
       441.760479      105.697444      268.337373     1     0     0     0     3   1.560
       149.029142      205.794270      180.448389     1     0     0     0     5   1.560
       453.972371      263.141181      460.343186     1     0     0     0     6   1.560
       449.065368      134.499468       27.639515     1     0     0     0     4   1.560
        65.969848      492.044822      198.211174     1     0     0     0     5   1.560
       104.442808      459.538394      326.941549     1     0     0     0     8   1.560
       402.040483      336.286028      283.263532     1     0     0     0     4   1.560
       328.836607      209.951524      113.222748     1     0     0     0     2   1.560
       254.724112      453.502865      314.943528     1     0     0     0     8   1.560
       447.333833      473.948605      117.361899     1     0     0     0     1   1.560
       497.309193      352.109869       44.774202     1     0     0     0     1   1.560
       135.558496      488.267656       69.276328     1     0     0     0     8   1.560
       213.798739      256.876442       71.250772     1     0     0     0     8   1.560
       364.808977      166.371877      430.859650     1     0     0     0     4   1.560
        99.067367       28.670159      477.167869     1     0     0     0     1   1.560
       334.205238       86.936801      159.329244     1     0     0     0     6   1.560
        32.037756      283.060300      221.268129     1     0     0     0     5   1.560
        94.735331      206.987946       12.659438     1     0     0     0     2   1.560
       351.355311      393.479586      406.524085     1     0     0     0     1   1.560
       117.569301      143.239623      484.730302     1     0     0     0     5   1.560
       305.639726       89.005089      239.730228     1     0     0     0     3   1.560
       412.309189      161.855786      111.801240     1     0     0     0     2   1.560
       387.434080      465.417513      199.022792     1     0     0     0     6   1.560
       121.993518      220.368169      261.380860     1     0     0     0     4   1.560
       354.652060      187.692692      339.247803     1     0     0     0     5   1.560
       274.486218      212.204951      144.566923     1     0     0     0     5   1.560
       341.100629      349.005231      121.407856     1     0     0     0     7   1.560
       285.013223      297.470918      314.708269     1     0     0     0     4   1.560
        99.236757      187.292389      250.012451     1     0     0     0     3   1.560
       316.149190      436.752872       54.189502     1     0     0     0     7   1.560
       283.468607      421.379919      194.310474     1     0     0     0     7   1.560
       237.901185       67.863973      461.332586     1     0     0     0     5   1.560
        69.202105        8.507516      328.490040     1     0     0     0     7   1.560
       436.275274       88.490934      126.091456     1     0     0     0     5   1.560
       387.482405       52.441358      478.268136     1     0     0     0     3   1.560
       426.003042      353.994388      263.139936     1     0     0     0     4   1.560
       371.248986      425.788669      481.336381     1     0     0     0     3   1.560
       244.660538      326.977798      216.421933     1     0     0     0     3   1.560
       411.544544      343.913018       82.566442     1     0     0     0     3   1.560
       352.929265      155.567624      385.272433     1     0     0     0     8   1.560
       416.909513      189.560233      357.588757     1     0     0     0     1   1.560
       235.617319       97.213673      135.346930     1     0     0     0     3   1.560
        91.976118      254.944445      271.180898     1     0     0     0     5   1.560
       156.533860      308.888137      266.664941     1     0     0     0     8   1.560
       281.590834      492.283902      285.194809     1     0     0     0     2   1.560
        69.607515      317.122611      287.022993     1     0     0     0     2   1.560
       312.792101      222.830880       78.187344     1     0     0     0     2   1.560
       343.761967      420.997430      248.615380     1     0     0     0     8   1.560
       204.022221      209.846445      270.811821     1     0     0     0     6   1.560
       390.874593      306.112241      399.509192     1     0     0     0     8   1.560
       498.400938      432.402107       64.399531     1     0     0     0     5   1.560
       210.869718       66.741280      436.012318     1     0     0     0     6   1.560
       133.333757      171.346310      476.761032     1     0     0     0     3   1.560
       496.299787      368.004587       77.253209     1     0     0     0     3   1.560
       317.719604      205.119979      228.144350     1     0     0     0     2   1.560
       390.480484        0.987657       24.953434     1     0     0     0     8   1.560
        58.912985      391.722459      440.899573     1     0     0     0     2   1.560
       225.779943       95.976130      156.200408     1     0     0     0     4   1.560
       492.139521      235.269975      133.839139     1     0     0     0     5   1.560
       154.597528      432.914522      364.481996     1     0     0     0     3   1.560
        96.265987      301.240944      399.674825     1     0     0     0     2   1.560
       190.759497       19.186764      246.760875     1     0     0     0     4   1.560
       145.448355       94.167773       73.335036     1     0     0     0     6   1.560
       423.063739      421.316965       85.245732     1     0     0     0     5   1.560
       268.054998      217.491114       12.610651     1     0     0     0     8   1.560
       200.482164      177.410009      301.404920     1     0     0     0     2   1.560
       444.793466      222.052859      477.406834     1     0     0     0     1   1.560
       249.345131      492.386020      353.004553     1     0     0     0     2   1.560
         5.157563       46.354257      241.358774     1     0     0     0     5   1.560
       326.608266      160.095032      232.718445     1     0     0     0     6   1.560
       301.868798       30.835913       79.284420     1     0     0     0     4   1.560
       281.288424      332.673730      439.265918     1     0     0     0     6   1.560
       155.024365      267.228127       16.942367     1     0     0     0     7   1.560
         8.613978      418.416369      283.050510     1     0     0     0     4   1.560
       301.894799      440.834935       82.971131     1     0     0     0     8   1.560
         8.961715      329.884577      233.242752     1     0     0     0     5   1.560
       197.157950      139.323556      206.584367     1     0     0     0     2   1.560
       109.893506      431.199364      292.928112     1     0     0     0     3   1.560
       310.046822       10.093649      497.470515     1     0     0     0     8   1.560
       379.238538        2.616436      248.013345     1     0     0     0     4   1.560
       127.111815      426.516735      297.218410     1     0     0     0     7   1.560
       250.672237      255.460299      371.765976     1     0     0     0     1   1.560
       259.763701      282.810088      259.954410     1     0     0     0     5   1.560
       384.174846      456.579840      282.672899     1     0     0     0     4   1.560
       310.143451      296.631495      415.593574     1     0     0     0     1   1.560
       331.863423      462.472819      298.404523     1     0     0     0     3   1.560
       163.790956      415.358347        1.716394     1     0     0     0     3   1.560
        99.891634      295.101677      365.222927     1     0     0     0     7   1.560
       175.480645      371.409765      442.808558     1     0     0     0     3   1.560
       151.302098      329.966583      312.256240     1     0     0     0     3   1.560
       103.286916      400.738162      336.715913     1     0     0     0     4   1.560
       266.162558      204.872133      475.075176     1     0     0     0     4   1.560
        79.467023      421.121654      390.240429     1     0     0     0     7   1.560
       275.212052       13.851690       89.295403     1     0     0     0     3   1.560
        39.528080      352.988552      164.404238     1     0     0     0     7   1.560
       222.234237      122.405557      205.138795     1     0     0     0     5   1.560
       204.019477      321.808310      256.809632     1     0     0     0     6   1.560
       238.400464       16.636481       79.835336     1     0     0     0     4   1.560
         4.413201      184.511215       96.416555     1     0     0     0     2   1.560
       384.089994      482.429067      471.065316     1     0     0     0     8   1.560
        84.319236       38.761153      457.919458     1     0     0     0     5   1.560
       250.523039      412.271729      418.687696     1     0     0     0     4   1.560
        58.445657      211.288590      179.626757     1     0     0     0     7   1.560
        32.553600      183.547124      339.434433     1     0     0     0     8   1.560
       113.277585      479.633693      492.238445     1     0     0     0     8   1.560
       131.832597       39.581970      188.494246     1     0     0     0     2   1.560
        23.209139      417.626551      331.008748     1     0     0     0     7   1.560
       238.035773       99.047858      416.606449     1     0     0     0     4   1.560
       308.221914      190.705092      362.145083     1     0     0     0     6   1.560
        23.372343       14.634736       84.419567     1     0     0     0     4   1.560
       181.219053      235.552299      476.799004     1     0     0     0     6   1.560
       418.932037      258.693778      454.054599     1     0     0     0     6   1.560
       258.021245      268.874984       70.014666     1     0     0     0     5   1.560
       191.124917      372.797705      134.076955     1     0     0     0     7   1.560
        56.636138      306.721177      268.003443     1     0     0     0     4   1.560
        57.794309      176.603751      448.793217     1     0     0     0     3   1.560
       411.966840       61.724350      306.214389     1     0     0     0     2   1.560
       184.561183      317.603619       87.420627     1     0     0     0     1   1.560
       480.924323      141.179204      313.076712     1     0     0     0     7   1.560
       344.383242      243.164398       39.586135     1     0     0     0     2   1.560
       463.535851      144.118558      373.909152     1     0     0     0     4   1.560
       175.636046        1.596174      298.415083     1     0     0     0     4   1.560
        10.962258      178.399674       77.206899     1     0     0     0     5   1.560
       417.216723      499.467282      450.303865     1     0     0     0     1   1.560
       194.568222      300.025120      361.015250     1     0     0     0     2   1.560
       250.601051      306.816591      344.500226     1     0     0     0     7   1.560
        45.523962      449.274164      378.561480     1     0     0     0     5   1.560
       483.830603      105.907901      135.156360     1     0     0     0     2   1.560
       293.109132       93.011107       55.832440     1     0     0     0     5   1.560
       250.736310      211.597589      306.963481     1     0     0     0     2   1.560
       201.391359       88.487080      468.417833     1     0     0     0     4   1.560
        21.812038      494.228057      204.505074     1     0     0     0     6   1.560
       135.795934       26.186415      432.477623     1     0     0     0     4   1.560
       105.522959      407.539785      400.232584     1     0     0     0     1   1.560
       484.684181       60.027451      233.525421     1     0     0     0     5   1.560
        47.962419       33.131117      227.072368     1     0     0     0     5   1.560
       489.157481       83.517965      350.913535     1     0     0     0     2   1.560
       491.826762       48.809038      242.251351     1     0     0     0     6   1.560
       146.119756       66.934651       43.439847     1     0     0     0     5   1.560
        24.614052       87.379220      126.013881     1     0     0     0     7   1.560
       410.677953      209.048445      350.837081     1     0     0     0     3   1.560
       383.449231      180.430607      369.424814     1     0     0     0     4   1.560
        55.841767      218.581238      163.571348     1     0     0     0     3   1.560
       221.334454      442.789927      358.459223     1     0     0     0     1   1.560
       277.942857      461.657206      409.602682     1     0     0     0     4   1.560
       475.107057      420.007661       85.610676     1     0     0     0     6   1.560
       439.931816       72.348611       63.946850     1     0     0     0     2   1.560
       328.221273      342.456174      162.773560     1     0     0     0     3   1.560
       418.169638      252.292766      145.936078     1     0     0     0     8   1.560
       181.883593      331.121878       35.023857     1     0     0     0     7   1.560
       210.455866      175.694746      488.329808     1     0     0     0     3   1.560
       384.895337      395.951582      297.760282     1     0     0     0     3   1.560
       430.233568      490.141143      371.199106     1     0     0     0     5   1.560
       219.756272      493.393273       58.500471     1     0     0     0     2   1.560
       208.660514      108.559180       10.006479     1     0     0     0     2   1.560
       352.120914      116.319463      317.005548     1     0     0     0     2   1.560
       425.838845      451.782636      205.605351     1     0     0     0     3   1.560
       166.775533      306.209394      418.532326     1     0     0     0     8   1.560
       272.186124      356.778676      343.786687     1     0     0     0     6   1.560
       181.112514      146.425637      380.398380     1     0     0     0     3   1.560
       105.234232      263.397361       90.322167     1     0     0     0     3   1.560
       446.159897      445.923551       61.197597     1     0     0     0     2   1.560
       179.532902       26.883477      468.953643     1     0     0     0     8   1.560
       175.204829      240.798458      415.138102     1     0     0     0     7   1.560
       283.938590       71.977942      451.444960     1     0     0     0     3   1.560
       377.789433      116.014565      452.627104     1     0     0     0     1   1.560
       498.734695      117.367292      291.137706     1     0     0     0     6   1.560
       116.191952      383.884487      426.123473     1     0     0     0     7   1.560
        36.777834      479.198829       50.510332     1     0     0     0     8   1.560
       414.800394      148.454465       79.716372     1     0     0     0     4   1.560
       493.635130      347.469689       90.995863     1     0     0     0     4   1.560
       178.799536      411.521632      193.160500     1     0     0     0     8   1.560
       339.945660      102.967461       54.774513     1     0     0     0     2   1.560
       479.980212      396.497423      327.238248     1     0     0     0     4   1.560
         7.769193       98.965853      436.182096     1     0     0     0     3   1.560
       422.881595       99.851254        2.628130     1     0     0     0     7   1.560
       371.040650      379.058995       39.121824     1     0     0     0     3   1.560
       170.961529       40.334148      447.569879     1     0     0     0     1   1.560
        55.735917      290.096919       51.234887     1     0     0     0     2   1.560
       368.975489      392.236202      326.138192     1     0     0     0     7   1.560
       233.001266      243.450261      221.903945     1     0     0     0     6   1.560
       403.125962      144.110701      222.178985     1     0     0     0     1   1.560
       315.940942      142.049221      319.527856     1     0     0     0     1   1.560
       339.738549      336.297220      204.534381     1     0     0     0     3   1.560
       239.007099      124.513343      444.372316     1     0     0     0     8   1.560
       495.059993      275.178287       51.410739     1     0     0     0     2   1.560
       364.171118      221.441927      453.395256     1     0     0     0     8   1.560
       312.349063      110.640778       99.574834     1     0     0     0     4   1.560
        98.185059      217.160747      248.468557     1     0     0     0     4   1.560
       201.885497       63.068859      140.884360     1     0     0     0     4   1.560
       105.799570      372.369930      260.489262     1     0     0     0     2   1.560
       280.917131      122.534615      102.223252     1     0     0     0     4   1.560
       150.880012      333.935309      289.152275     1     0     0     0     4   1.560
       199.117714      308.625130      271.025796     1     0     0     0     7   1.560
       250.862245      149.325411      305.558356     1     0     0     0     5   1.560
       469.234444      241.396088      250.401359     1     0     0     0     7   1.560
       112.462492      379.749130      209.696123     1     0     0     0     8   1.560
       135.439199      146.376475      288.153216     1     0     0     0     5   1.560
       170.404077      374.067924      206.344418     1     0     0     0     4   1.560
       448.838817      314.217939      100.710778     1     0     0     0     2   1.560
       490.686623      169.012455      147.286581     1     0     0     0     6   1.560
       177.778792      361.246791       27.825630     1     0     0     0     2   1.560
        36.579319      170.966704        2.058584     1     0     0     0     8   1.560
       398.139568      313.072301       48.028555     1     0     0     0     6   1.560
         8.122789      463.084019      429.663375     1     0     0     0     1   1.560
       141.931591      282.399978      310.619466     1     0     0     0     5   1.560
       160.501502       14.966521       31.072615     1     0     0     0     3   1.560
       484.697117        0.263204       34.622838     1     0     0     0     7   1.560
        82.116709      361.970040      479.212185     1     0     0     0     4   1.560
        86.997855       44.942356      338.772057     1     0     0     0     5   1.560
        71.041963      387.273356      351.562779     1     0     0     0     2   1.560
       408.604904      150.689809      411.825445     1     0     0     0     8   1.560
       320.331630      475.966268      425.523090     1     0     0     0     3   1.560
       411.983225       56.574395      215.853999     1     0     0     0     3   1.560
       388.895747        8.120154      334.692204     1     0     0     0     2   1.560
       343.256991      347.772252      363.779947     1     0     0     0     1   1.560
       396.078015      246.814226      250.423659     1     0     0     0     3   1.560
       410.411065      125.834674      150.512912     1     0     0     0     5   1.560
       221.672046      134.277900      356.934389     1     0     0     0     4   1.560
        36.996592      479.417587       53.894239     1     0     0     0     2   1.560
       480.426139      437.813642      252.879200     1     0     0     0     5   1.560
        87.109565      470.132015      411.795660     1     0     0     0     1   1.560
       496.905857       14.778465      124.110579     1     0     0     0     1   1.560
       460.140647      217.330278      113.405503     1     0     0     0     5   1.560
       313.175249      349.059104      476.583198     1     0     0     0     2   1.560
        64.923338      397.894188      456.106538     1     0     0     0     2   1.560
        20.920976      273.822597       83.165275     1     0     0     0     8   1.560
        30.996935      189.000735      355.361916     1     0     0     0     8   1.560
       225.736230       75.497773      279.290359     1     0     0     0     1   1.560
        28.754441      197.124740      363.951615     1     0     0     0     4   1.560
       234.239911      445.548445      397.985590     1     0     0     0     7   1.560
       489.640498      159.859667      117.119237     1     0     0     0     5   1.560
       145.503827      197.606701      491.199740     1     0     0     0     7   1.560
       381.424599      260.636488      286.597416     1     0     0     0     2   1.560
       200.624188      457.498462       46.454959     1     0     0     0     8   1.560
       301.394845      258.552951      197.368807     1     0     0     0     2   1.560
       430.089310      300.801370      479.030089     1     0     0     0     2   1.560
       132.274415       10.838970      431.190605     1     0     0     0     6   1.560
       442.353529      160.503575       79.466724     1     0     0     0     4   1.560
       365.863382       36.996619      318.054241     1     0     0     0     8   1.560
       339.432750      476.713284      204.208430     1     0     0     0     8   1.560
       412.218571      367.967096       68.203696     1     0     0     0     6   1.560
        69.997983      380.452748      414.334705     1     0     0     0     7   1.560
        80.382947      201.574383      201.564047     1     0     0     0     1   1.560
        71.589407      182.700351      364.106212     1     0     0     0     5   1.560
       100.897308      285.703116      124.063488     1     0     0     0     1   1.560
       197.452257      490.640246      225.259731     1     0     0     0     5   1.560
        91.017442      257.816487       39.357187     1     0     0     0     2   1.560
       198.772070       50.558153      119.236604     1     0     0     0     7   1.560
       335.844709      294.429184       17.101079     4     0     0     0     8   2.480
       108.498300        1.159381      273.217399     1     0     0     0     2   1.560
       142.621271      437.779278       74.194949     1     0     0     0     7   1.560
       241.401505      390.524928      313.576558     1     0     0     0     2   1.560
       268.770056      182.225639      420.794983     1     0     0     0     6   1.560
       104.982887      476.727290      294.292198     1     0     0     0     5   1.560
       346.420907       37.570654      247.312375     1     0     0     0     3   1.560
       453.141857      427.171768      385.481232     1     0     0     0     5   1.560
       179.089965      226.266238       92.192892     1     0     0     0     4   1.560
       140.167653      396.238411      244.735491     1     0     0     0     4   1.560
       322.481888      347.531881      123.974272     1     0     0     0     6   1.560
        58.524237      458.490178      323.323138     1     0     0     0     6   1.560
       150.791542      427.171575      257.178482     1     0     0     0     6   1.560
       129.796987      304.488701      200.000937     1     0     0     0     8   1.560
       456.266023      183.879014      364.699594     1     0     0     0     2   1.560
       359.788214      182.895476      223.436486     1     0     0     0     8   1.560
       241.676904      217.701234      152.745228     1     0     0     0     7   1.560
       441.469345       29.951894      247.100847     1     0     0     0     2   1.560
       149.026629      165.205669      442.259397     1     0     0     0     7   1.560
       212.193402      442.176911      460.658729     1     0     0     0     5   1.560
       497.261640      242.395829      200.687642     1     0     0     0     2   1.560
       158.938280       98.397638      113.795499     1     0     0     0     6   1.560
       203.112936      183.926390       85.320088     1     0     0     0     2   1.560
       105.443951       71.850215      313.770754     1     0     0     0     7   1.560
       314.617219      449.307716      264.898258     1     0     0     0     3   1.560
       142.498279       99.466522       46.743185     1     0     0     0     8   1.560
       282.623693      355.851040       16.256504     1     0     0     0     8   1.560
       141.672799      181.971264       65.423481     1     0     0     0     1   1.560
       303.104083      344.096109      373.943623     1     0     0     0     4   1.560
        15.842660      359.395496      378.332186     1     0     0     0     4   1.560
       102.601537      445.070683      154.937340     1     0     0     0     4   1.560
        50.176947       14.033787      441.756813     1     0     0     0     8   1.560
       342.896721       47.259512       32.255523     1     0     0     0     7   1.560
       260.461803      204.073319      136.435291     1     0     0     0     4   1.560
       486.714320      468.455075      481.857590     1     0     0     0     3   1.560
        26.794152      160.704478       13.111765     1     0     0     0     4   1.560
        38.291358      336.004732      365.070610     1     0     0     0     3   1.560
       209.223710       54.517350      205.909667     1     0     0     0     1   1.560
       394.122010      362.830685      325.890769     1     0     0     0     3   1.560
       211.210080       14.155198      197.606303     1     0     0     0     6   1.560
        37.746551      478.078019       91.522061     1     0     0     0     6   1.560
        61.456307       52.925654      497.291966     1     0     0     0     6   1.560
       151.510651        5.750946      224.704923     1     0     0     0     1   1.560
       150.828488      278.682705      133.157149     1     0     0     0     7   1.560
       120.384274       59.168409      114.108077     1     0     0     0     4   1.560
        63.512737      202.885256      256.784761     1     0     0     0     7   1.560
       144.386748      235.991058      432.383325     1     0     0     0     8   1.560
       307.843049      467.360668      267.896373     1     0     0     0     6   1.560
       351.952425       15.199025      293.688070     1     0     0     0     6   1.560
       354.820340      100.811957      213.014830     1     0     0     0     6   1.560
        55.423946      316.386312      331.861621     1     0     0     0     4   1.560
       290.906761      245.562210      201.762058     1     0     0     0     2   1.560
       378.455650       78.112116      471.013802     1     0     0     0     3   1.560
       147.498880       87.444566      454.973295     1     0     0     0     3   1.560