ITEM: TIMESTEP
0
ITEM: NUMBER OF ATOMS
        6112
ITEM: BOX BOUNDS pp pp pp
  0.0000000E+00   500.000000000000     
  0.0000000E+00   500.000000000000     
  0.0000000E+00   500.000000000000     
ITEM: ATOMS x y z nV nH f3 f4 orient
       193.957159       89.290098       70.111431     1     0     0     0     8
        72.985656      418.419807      205.461803     1     0     0     0     1
       208.214864       34.691715      341.775664     1     0     0     0     4
       266.948598       34.893299      402.761935     1     0     0     0     7
       187.773929      350.770927      241.667206     1     0     0     0     3
       245.513797      204.544045      411.688101     1     0     0     0     3
       482.040622       33.511932      140.380415     1     0     0     0     7
       344.592225      100.359801      276.525637     1     0     0     0     6
        57.371071      459.304929      398.950053     1     0     0     0     4
        97.053006      241.321977       43.621234     1     0     0     0     7
       351.212287      386.405282      114.504516     1     0     0     0     3
       281.320401      422.294232      358.995460     1     0     0     0     3
       260.754890      194.185355       54.899470     1     0     0     0     4
       130.264010      248.168282      283.585399     1     0     0     0     4
       276.926657      157.342655      498.390171     1     0     0     0     6
         1.794133      237.027556      476.493529     1     0     0     0     1
       103.741329      283.942888      131.120413     1     0     0     0     1
        23.603250      157.143597       45.495319     1     0     0     0     7
        40.694399      299.425364      378.738812     1     0     0     0     7
        74.956256      130.284077      476.236921     1     0     0     0     8
       442.513831      336.865912      171.589058     1     0     0     0     2
       266.278335      418.387026      263.666496     1     0     0     0     8
       467.679670      175.560520      124.582725     1     0     0     0     8
       139.326307      245.885550      161.494912     1     0     0     0     1
        90.715402      407.130789      316.704993     1     0     0     0     8
       188.224063      366.066145      124.617800     1     0     0     0     4
       160.174117      121.407785      343.103784     1     0     0     0     3
        34.216658      293.918376       63.793456     1     0     0     0     3
       168.582584      148.381283      322.799426     1     0     0     0     3
       474.067077      331.053194       14.065398     1     0     0     0     2
       208.589574       51.715280       25.378234     1     0     0     0     2
        57.306102      336.933781      330.497050     1     0     0     0     8
       413.308770       44.220435       45.151937     1     0     0     0     2
       109.900870      261.687281      145.247186     1     0     0     0     1
       103.331007      443.505457       50.992721     1     0     0     0     4
       428.186565      466.179867      178.673445     1     0     0     0     7
       232.290417      424.660857      270.348514     1     0     0     0     4
       392.669003      287.146147      169.809110     1     0     0     0     3
       159.383235      142.005728       59.116659     1     0     0     0     3
       143.530282      492.748870      148.327129     1     0     0     0     3
       497.614611      361.695890      155.049088     1     0     0     0     1
       219.184701      353.949419      150.819726     1     0     0     0     2
       174.469524      447.558559      329.787451     1     0     0     0     4
       443.973584      138.000337      396.226039     1     0     0     0     8
       277.767082      338.230226      474.435660     1     0     0     0     3
       118.515658      389.405164       68.829611     1     0     0     0     7
       389.865827       58.238226      304.378848     1     0     0     0     1
         2.045302       39.453889       95.499170     1     0     0     0     5
       174.015943      128.627607      106.843552     1     0     0     0     3
       139.097727       50.359685       11.968798     1     0     0     0     8
       367.964331       25.418899       36.925253     1     0     0     0     2
       337.623163      180.215735      414.632895     1     0     0     0     5
        61.191135      447.157030      291.890431     1     0     0     0     1
        72.881127       20.010761      273.046184     1     0     0     0     3
       109.170208      133.824561       37.832044     1     0     0     0     3
        85.427293      445.758673      445.385732     1     0     0     0     5
       139.792936      162.188850       74.395148     1     0     0     0     8
       439.723584      322.412719      122.019280     1     0     0     0     6
       255.765133      273.423308       15.384474     1     0     0     0     6
       452.645979       70.369510      148.027264     1     0     0     0     5
       155.611300      392.804688      170.112326     1     0     0     0     4
        12.583152      284.814929       61.119494     1     0     0     0     5
       316.196695      246.540775      214.702241     1     0     0     0     7
       323.937174      438.175815      154.577463     1     0     0     0     3
       304.947349      269.136755      404.874741     1     0     0     0     6
       171.096597       74.052663       35.561601     1     0     0     0     7
       128.152522      341.519951      365.026823     1     0     0     0     3
       168.570354       41.130767       28.184702     1     0     0     0     7
       225.878370        3.279956      464.582810     1     0     0     0     4
       169.300633       58.875498      398.541397     1     0     0     0     8
       371.140342      162.570129      143.585253     1     0     0     0     6
       294.828340      396.482849      395.263797     1     0     0     0     5
       158.141099      174.434197      249.826684     1     0     0     0     3
       112.296604      129.262664      491.853456     1     0     0     0     7
       372.988749       60.438364      463.546443     1     0     0     0     6
       213.971557      261.231300      421.933317     1     0     0     0     6
        67.115961      319.117272       78.214003     1     0     0     0     5
       415.440448      406.674861      114.390596     1     0     0     0     2
       434.192310      304.783039      178.488110     1     0     0     0     4
        66.420195      437.001471      178.682105     1     0     0     0     5
       312.228307      441.016009      205.262246     1     0     0     0     7
       445.727650      197.583283      162.469102     1     0     0     0     3
        70.183186      102.062742      442.248108     1     0     0     0     4
       157.817028      439.234901      487.844406     1     0     0     0     2
        46.803142      330.578144      266.360635     1     0     0     0     2
       482.262996       31.510534      176.739086     1     0     0     0     6
       481.270631      245.762641      446.994348     1     0     0     0     1
        64.947800      148.521422       73.052576     1     0     0     0     1
       231.045043      368.493901      469.464091     1     0     0     0     5
       262.500768      288.769963      315.162588     1     0     0     0     2
       186.812822      260.542045      437.831701     1     0     0     0     4
         6.493746      258.568668      242.125192     1     0     0     0     5
        39.114425      466.323037      192.408515     1     0     0     0     6
         3.486595      116.407309      238.677895     1     0     0     0     8
       280.001250      128.856260      121.527004     1     0     0     0     2
       451.210675      476.851724      425.002329     1     0     0     0     1
       427.462529      236.291624      194.343444     1     0     0     0     6
       372.989642      274.148439       85.619502     1     0     0     0     2
        98.581552       44.305207      291.990733     1     0     0     0     8
       339.208258      167.063430       83.105758     1     0     0     0     7
       467.359647      116.737209      341.428746   163     0     0     0     7
       248.605730      376.088009      447.197998     1     0     0     0     6
       182.857124      273.147900      217.447954     1     0     0     0     6
       115.929379      437.239519      349.480057     1     0     0     0     7
        67.116658      398.734149       35.145551     1     0     0     0     7
       191.957812      319.948047      135.784242     1     0     0     0     2
       362.112121      310.690917      234.224303     1     0     0     0     5
       359.682725      415.050752       12.474155     1     0     0     0     7
       305.041746       37.223541       66.258270     1     0     0     0     6
       348.833533      496.119007      414.283900     1     0     0     0     4
        76.159660      244.433438       78.793270     1     0     0     0     1
       345.267056      256.096000      161.326556     1     0     0     0     2
        59.849563      281.036276      301.001665     1     0     0     0     8
       282.844648      391.043254      419.323004     1     0     0     0     8
       329.210938      107.846109      474.287344     1     0     0     0     2
        77.748200      154.936059      200.383372     1     0     0     0     6
       214.279587      483.688208      246.184247     1     0     0     0     5
       265.627671        0.829380      251.691137     1     0     0     0     2
        11.689836       69.869148      472.242457     1     0     0     0     4
       266.350418      329.065547      452.770658     1     0     0     0     1
       386.255143      237.393002       32.319955     1     0     0     0     6
       375.031198      264.704228      361.814461     1     0     0     0     7
       459.487093      170.037028       17.200270     1     0     0     0     5
        78.342214       69.403198      437.147056     1     0     0     0     6
       298.905359      423.489787      370.904651     1     0     0     0     8
        11.871871       40.721561      409.924326     1     0     0     0     6
       403.340369      480.187059        2.767448     1     0     0     0     3
        96.442823      464.916449      468.263652     1     0     0     0     6
       120.224917       78.135381      374.424420     1     0     0     0     7
       173.745622      242.636681      108.208667     1     0     0     0     1
       110.522765      222.685669      230.211414     1     0     0     0     6
       385.017535      383.477759       99.756335     1     0     0     0     2
       406.030384      296.728812      483.719552     1     0     0     0     7
       348.891513      417.638432      372.191803     1     0     0     0     4
       425.731081      137.277416        9.727760     1     0     0     0     7
       387.310026      173.287593      472.590744     1     0     0     0     5
       288.851277      265.062596      395.587814     1     0     0     0     8
       429.299641      475.259419      465.176011     1     0     0     0     1
       281.343953      498.577451      198.543628     1     0     0     0     3
       222.421853      133.598391       93.564143     1     0     0     0     5
       255.486434      163.804195      456.853585     1     0     0     0     4
       496.661081      159.247456      151.582199     1     0     0     0     7
       384.528823      298.202147      377.792448     1     0     0     0     8
       341.020526      423.322610      148.575122     1     0     0     0     3
       155.307160      419.535705       32.827717     1     0     0     0     7
       396.365000      456.512420      270.281423     1     0     0     0     4
        78.176212      251.433199      394.945562     1     0     0     0     4
       347.552024      182.725043       54.337696     1     0     0     0     1
       309.971252       59.386981      413.870015     1     0     0     0     1
       223.089993      423.546092      274.049244     1     0     0     0     4
       339.540914      414.287150      299.298474     1     0     0     0     4
       181.414808       37.738263      466.604467     1     0     0     0     6
       152.465370      339.148835      357.571524     1     0     0     0     4
       253.282446      365.583803       26.972500     1     0     0     0     1
       310.757729      373.255080       60.071917     1     0     0     0     8
       331.613167       63.370421       85.813407     1     0     0     0     6
        48.692631      212.199072        5.387068     1     0     0     0     3
       207.993539      308.290511      205.330982     1     0     0     0     4
       357.112816       25.735454       61.478757     1     0     0     0     3
       480.257097       41.164043      462.965766     1     0     0     0     3
       302.072107      340.670954      269.253221     1     0     0     0     1
       483.189154      325.220815      385.738396     1     0     0     0     8
       102.171631      133.067813      489.933651     1     0     0     0     8
       371.602622      257.498867      148.272434     1     0     0     0     5
       105.227188      161.589374      116.672492     1     0     0     0     8
       357.898149      308.967487      461.687884     1     0     0     0     4
       274.987568      319.455020       82.046696     1     0     0     0     3
        71.330792      154.172491      216.520479     1     0     0     0     7
       326.154626      424.036427      493.321536     1     0     0     0     7
       421.517419       56.864737       33.639856     1     0     0     0     1
       306.312141       59.780989      134.454093     1     0     0     0     4
       377.581742      265.621755      384.405531     1     0     0     0     8
       117.497932       53.975963      495.474491     1     0     0     0     8
       287.042807      486.515881       91.968353     1     0     0     0     5
       242.600144       10.787521      498.798843     1     0     0     0     7
        69.570761      244.640908      364.324222     1     0     0     0     4
       250.719459      462.068908      430.590746     1     0     0     0     5
       356.777693      423.472145      181.246276     1     0     0     0     7
       469.958508      131.305408      307.976417     1     0     0     0     2
       152.381005      382.056956      164.014103     1     0     0     0     2
       249.662537      330.439150      332.366277     1     0     0     0     1
       370.373977      183.313795      355.167376     1     0     0     0     4
       281.704500      343.111492      395.508225     1     0     0     0     2
       312.178125      228.989942       77.772122     1     0     0     0     8
        23.367968      198.010729      291.003330     1     0     0     0     1
       240.418976      286.560375      344.084871     1     0     0     0     7
       299.881705      307.541634       14.622161     1     0     0     0     2
       271.541593      250.387806        9.840666     1     0     0     0     3
         7.670532      411.693917      277.263747     1     0     0     0     7
         3.801457      103.347639      155.420684     1     0     0     0     5
       409.112352       74.081511      308.661975     1     0     0     0     7
       126.437191      138.035121      162.245461   117     0     0     0     5
       171.221780      211.965681      320.090567     1     0     0     0     8
       459.833052      296.435857      263.672325     1     0     0     0     1
       346.110463      341.957053      497.598120     1     0     0     0     7
       460.719837      400.868285      416.334495     1     0     0     0     6
       180.554226        4.845659      426.835979     1     0     0     0     1
       489.496587      460.255200      108.789981     1     0     0     0     7
       113.916085       58.092689      115.276091     1     0     0     0     8
       494.745854      448.904924      179.712051     1     0     0     0     1
       447.811915      379.257113      280.339744     1     0     0     0     5
       188.392610      217.019225      329.063388     1     0     0     0     5
       404.639778      149.242692       99.725200     1     0     0     0     8
       390.030611      196.653369       38.924606     1     0     0     0     7
        32.423520       63.586653       30.309326     1     0     0     0     2
       216.470620       18.848414      247.661391     1     0     0     0     7
       189.977468      171.671881      332.635555     1     0     0     0     6
       111.443014      319.921982      128.849029     1     0     0     0     1
       155.450375      216.458445      311.141900     1     0     0     0     4
       261.598119      192.486369       34.209101     1     0     0     0     6
       371.374065       10.381959       11.929639     1     0     0     0     3
       119.392085      338.213893      479.449787     1     0     0     0     2
       401.248088      159.809799      412.086542     1     0     0     0     7
        49.337846      408.005999      443.038945     1     0     0     0     5
       283.611252      268.251972       46.097538     1     0     0     0     8
       427.377622      107.785832      468.647290     1     0     0     0     5
       229.976571      121.569531      331.700092     1     0     0     0     8
        89.086478      276.266328       97.792140     1     0     0     0     3
       284.204602       72.260461      130.978266     1     0     0     0     6
       186.484493      342.109755      120.879848     1     0     0     0     8
       334.815802      379.270460      400.710552     1     0     0     0     3
       404.672769      176.903401      467.961853     1     0     0     0     8
       423.668913      374.647642      270.981686     1     0     0     0     8
        54.547620      147.937684      118.395765     1     0     0     0     6
       211.799705      439.553264      294.693361     1     0     0     0     3
       407.327828      289.000861      118.351301     1     0     0     0     8
       128.671418      337.337474      411.177965     1     0     0     0     1
       208.780109      225.673571      359.389065     1     0     0     0     2
       118.580870      469.016231      329.483507     1     0     0     0     2
        18.190701       89.034378      254.922714    90     0     0     0     5
        14.229035      127.473082      279.635593     1     0     0     0     6
        46.827933      409.719344       67.543786     1     0     0     0     3
       232.992898      150.381168       76.907892     1     0     0     0     3
       278.228368      154.883059      252.087074     1     0     0     0     3
       220.996094      351.002201      169.825424     1     0     0     0     2
       255.815326      283.985228      235.887415     1     0     0     0     4
        30.888492       92.115266      474.798131     1     0     0     0     6
       162.385073        0.104890       55.684315     1     0     0     0     5
       289.543809       40.747388      176.084106     1     0     0     0     3
       481.544394      216.745041       95.276786     1     0     0     0     4
       445.007247      155.204468      252.206644     1     0     0     0     4
       302.378175      292.178033      217.703919     1     0     0     0     6
       323.791791      256.456944      314.373081     1     0     0     0     2
       182.786784      338.858415      486.572535     1     0     0     0     1
       493.992285       13.786509      432.447746     1     0     0     0     3
       297.808301      127.529039      187.170055     1     0     0     0     5
        50.254059      107.093940      371.330818     1     0     0     0     7
       148.507315      255.522665      452.889008     1     0     0     0     6
       149.473818      370.007919      100.050663     1     0     0     0     1
       437.192748      203.335061       58.645600     1     0     0     0     6
       356.775157      321.491104      374.977685     1     0     0     0     5
       394.829424      304.007450       50.690818     1     0     0     0     3
       489.292048       11.529298      395.826343     1     0     0     0     5
       127.667976      156.556226      465.423273     1     0     0     0     5
       267.148465      304.348355      465.271318     1     0     0     0     6
       129.685152      334.841189      448.993075     1     0     0     0     6
        11.042875      491.767564      157.269578     1     0     0     0     7
       221.932502       11.301834       16.907372     1     0     0     0     7
        65.207967      184.191494       58.776660     1     0     0     0     5
        80.033833      188.160576      223.054682     1     0     0     0     1
        78.425357      238.919776      129.400278     1     0     0     0     8
       107.679058      152.443041       54.087894     1     0     0     0     8
       431.670701       83.552106      384.551631     1     0     0     0     1
       427.133772      117.674838       98.442477     1     0     0     0     5
       478.727235      453.215626      313.667618     1     0     0     0     4
       266.163937      353.313745      425.341143     1     0     0     0     4
       311.069013      427.408739       39.181506     1     0     0     0     3
       258.674838      397.025220      175.570378     1     0     0     0     8
       107.489818      165.139319      332.195094     1     0     0     0     5
       397.728817      474.139501      255.819492     1     0     0     0     4
       433.331532       38.354553       98.933392     1     0     0     0     5
       129.190351      493.286293      303.404920     1     0     0     0     6
       426.405342       90.333448      275.617165     1     0     0     0     8
       418.702851       16.576264      121.952394     1     0     0     0     7
       104.379000       84.127744      200.545603     1     0     0     0     3
       263.129496      296.460206      361.346091     1     0     0     0     8
       491.291641      254.122784        8.721900     1     0     0     0     7
       446.706314      451.763505      142.324344     1     0     0     0     6
       330.259309        2.556283      370.726081     1     0     0     0     4
       331.890188      360.937481      243.660412     1     0     0     0     7
       420.579632       94.772859      251.030682     1     0     0     0     3
        33.732363      399.225948       12.086905     1     0     0     0     6
       438.969207      348.700129      132.457385     1     0     0     0     4
       110.939045      255.685280      166.075783     1     0     0     0     7
       294.344800      385.891407      282.089397     1     0     0     0     8
       389.073058       35.842623       81.622112     1     0     0     0     3
        14.535551      115.942288       33.318885     1     0     0     0     3
       210.113211      299.751614      444.660982     1     0     0     0     4
       200.057637       82.530203      482.784776     1     0     0     0     3
       491.331582      485.000036       58.987067     1     0     0     0     6
        52.649558      394.711714      351.796963     1     0     0     0     1
       424.154693      319.782474      165.278000     1     0     0     0     5
       244.285856      238.466012      456.378046     1     0     0     0     7
       409.331707      307.959035      429.905579     1     0     0     0     5
       481.127462      301.106760      319.412206     1     0     0     0     1
       415.203225      296.015364      337.737571     1     0     0     0     8
       403.115113      381.584673      412.507160     1     0     0     0     7
       482.794873      454.571743      476.436050     1     0     0     0     7
       336.015181      221.118324      143.104417     1     0     0     0     3
       407.419650      445.794018      374.654069     1     0     0     0     2
       451.272637      164.677301       55.505657     1     0     0     0     7
        16.997322      112.590511       93.886664     1     0     0     0     7
       138.962532      236.963473      377.374476     1     0     0     0     8
       219.197347      282.621411      218.260334     1     0     0     0     4
       401.244141      256.834913      312.514740     1     0     0     0     6
       121.842500      272.947070      161.836070     1     0     0     0     1
       116.532851      372.999950      305.365076     1     0     0     0     1
       312.456532      334.551215      483.012279     1     0     0     0     1
       320.133850      379.073854      139.016461     1     0     0     0     1
       389.631814       70.930987       95.623613     1     0     0     0     6
       436.715440       63.894508       82.888885     1     0     0     0     5
       380.832164      129.859737      430.825548     1     0     0     0     2
       448.780917      312.371086        2.107678     1     0     0     0     6
       382.652891      496.732855      494.991581     1     0     0     0     6
       457.876215      481.346706      427.911834     1     0     0     0     8
        43.327471      359.728866      163.588820     1     0     0     0     1
       369.570250      232.958713       12.600061     1     0     0     0     2
       215.586364      459.686561      121.702678     1     0     0     0     8
       364.908983      290.074961      201.918836     1     0     0     0     4
       416.658159      119.011028       43.924367     1     0     0     0     5
       243.917264       11.273382       71.211884     1     0     0     0     6
        94.530320      271.555738      486.372006     1     0     0     0     5
       267.734910      437.578268      204.912039     1     0     0     0     8
       164.487390        6.869473      227.454378     1     0     0     0     3
        75.810106       43.882584      452.466875     1     0     0     0     4
       239.486507      410.828196      237.859012     1     0     0     0     7
       122.723888       55.800070      315.964236     1     0     0     0     5
        75.064322      305.460360      463.143079     1     0     0     0     2
        16.513985      143.772782      460.620303     1     0     0     0     2
       426.371710      261.941671      384.997279     1     0     0     0     4
       256.260990       70.481313      432.301831     1     0     0     0     3
       404.303938      411.171707      291.776691     1     0     0     0     1
       450.604948      233.980774      147.527165     1     0     0     0     5
       102.561943      302.638315      315.984792     1     0     0     0     8
        38.760271      422.330381      389.465950     1     0     0     0     5
       268.014364      428.856370      103.927552     1     0     0     0     4
        12.894482      211.805441       89.828309     1     0     0     0     7
       107.245673      217.600543      313.901044     1     0     0     0     7
       245.660552       13.112316      464.211799     1     0     0     0     2
       461.401808      347.273822       82.895654     1     0     0     0     3
       310.933305      439.381312      369.056739     1     0     0     0     8
       256.139910      272.990421      241.412385     1     0     0     0     7
       310.593793       42.992807      228.223023     1     0     0     0     2
       218.767789      113.504902      356.905543     1     0     0     0     5
       483.376695       13.881933      344.564334     1     0     0     0     1
       199.073103      279.097808      276.200830     1     0     0     0     7
       483.912476      212.922760      352.514259     1     0     0     0     5
       172.121827       59.600672      361.735558     1     0     0     0     2
        52.836150       78.392436       65.067896     1     0     0     0     4
       282.007174      188.663908      422.816126     1     0     0     0     5
       257.408561      485.327257      454.520199     1     0     0     0     1
       123.816023       49.690899      188.964307     1     0     0     0     2
        42.224789      341.398833      319.502531     1     0     0     0     4
       378.558046      265.875667      274.840246     1     0     0     0     7
       430.991148       86.987884      476.212413     1     0     0     0     2
       350.392276      297.132855      142.078675     1     0     0     0     8
       440.419974      123.615283      312.196960     1     0     0     0     1
       242.575453       99.757935      426.067200     1     0     0     0     7
       189.144004      242.582182       21.689230     1     0     0     0     1
       262.702152      466.045301      149.086352     1     0     0     0     3
       265.136033      329.480268      295.456779     1     0     0     0     7
       247.998958      494.575998      468.071325     1     0     0     0     1
       441.106628      418.183833       63.796604     1     0     0     0     5
       148.396300       10.396655       74.622812     1     0     0     0     3
       466.354539      336.530457      203.559702     1     0     0     0     5
        60.776168       16.484897      314.291195     1     0     0     0     4
       413.153220       67.311332      293.910881     1     0     0     0     4
       227.968432      120.582021      393.220536     1     0     0     0     5
       483.407912      306.011159      414.443501     1     0     0     0     3
       262.862456      446.131452      234.744016     1     0     0     0     4
       296.427373      435.546938      186.485689     1     0     0     0     3
       330.267361       31.641582      400.649083     1     0     0     0     5