ITEM: TIMESTEP
0
ITEM: NUMBER OF ATOMS
        5989
ITEM: BOX BOUNDS pp pp pp
  0.0000000E+00   500.000000000000     
  0.0000000E+00   500.000000000000     
  0.0000000E+00   500.000000000000     
ITEM: ATOMS x y z f1 f2 f3 f4 orient radius
       211.577540      482.130857       12.217148     1     0     0     0     3   1.560
       161.977820      389.540569      202.008305     1     0     0     0     6   1.560
       143.525735       67.275933      318.288381     1     0     0     0     1   1.560
       258.797662      211.715695      201.289877     1     0     0     0     3   1.560
       350.470116      104.630937      167.710070     1     0     0     0     6   1.560
       370.386779      239.869604      278.893014     1     0     0     0     2   1.560
       168.265570       35.055118      316.094628     1     0     0     0     4   1.560
       246.512758       67.527732      125.955072     1     0     0     0     5   1.560
       211.003539      439.840273      394.559609     1     0     0     0     4   1.560
       325.071753      135.826301      453.259046     1     0     0     0     2   1.560
       184.581798      328.805956       37.631333     1     0     0     0     8   1.560
        24.982108      206.031741      171.939507     1     0     0     0     3   1.560
       419.228460      468.829519      292.530232     1     0     0     0     7   1.560
       389.931587       71.209509      106.984381     1     0     0     0     3   1.560
        71.355115      497.130019      349.124348     1     0     0     0     2   1.560
        55.030879      312.365253       39.685398     1     0     0     0     5   1.560
       446.530919       91.251928      214.186098     1     0     0     0     6   1.560
       322.987881      436.709468      443.552954     1     0     0     0     5   1.560
       448.753472       24.681829      261.594741     1     0     0     0     4   1.560
       201.709801      227.775542      320.092227     1     0     0     0     8   1.560
       374.862756        1.216620      295.931354     1     0     0     0     6   1.560
        99.247147      101.787783      495.762350     1     0     0     0     4   1.560
       382.784721      258.716284      392.806578     1     0     0     0     5   1.560
       433.736255      137.783337      359.370541     1     0     0     0     1   1.560
       443.767940      470.587347       27.509251     1     0     0     0     5   1.560
       122.703493       77.388837      322.983788     1     0     0     0     8   1.560
       344.409772      329.787858      458.448489     1     0     0     0     7   1.560
       282.833427      375.682233      414.231197     1     0     0     0     4   1.560
       129.693158       85.879132      220.048387     1     0     0     0     3   1.560
       389.465609      455.314809      383.807872     1     0     0     0     2   1.560
       231.306875      316.404710      372.191737     1     0     0     0     1   1.560
       205.948083       45.487109       87.159446     1     0     0     0     3   1.560
       361.067542      470.850663       92.910088     1     0     0     0     1   1.560
       360.892625      326.463632       20.398949     1     0     0     0     3   1.560
        83.558043      136.047880      305.648316     1     0     0     0     8   1.560
       210.450200      399.948992      101.852368     1     0     0     0     4   1.560
       317.069127      314.106261       47.004804     1     0     0     0     2   1.560
       193.377289       21.059467      337.686886     1     0     0     0     6   1.560
        67.324925      253.967652      457.368168     1     0     0     0     5   1.560
       495.592653      348.161839      354.062254     1     0     0     0     4   1.560
       165.440655      165.313437      332.130898     1     0     0     0     5   1.560
       291.228807      365.653459      363.806611     1     0     0     0     2   1.560
       203.952491      425.553163      394.610693     1     0     0     0     1   1.560
       374.801512      238.968605      289.407486     1     0     0     0     3   1.560
       104.435436      325.987652      132.609957     1     0     0     0     6   1.560
       116.007069       36.838024      285.460227     1     0     0     0     3   1.560
       197.649631        9.365429      475.041813     1     0     0     0     8   1.560
        33.207115      211.636434      490.223547     1     0     0     0     8   1.560
       395.215349      361.347336      223.931207     1     0     0     0     4   1.560
       243.814988      268.000613      266.427162     1     0     0     0     8   1.560
       101.553472       97.001533       98.963563     1     0     0     0     3   1.560
       424.620161      309.518187      118.902903     1     0     0     0     2   1.560
       427.979203      483.517957      494.504376     1     0     0     0     2   1.560
        59.501991       47.577562      480.009045     1     0     0     0     1   1.560
        43.965509      493.114357      381.165337     1     0     0     0     7   1.560
       296.620346       28.954667      217.531474     1     0     0     0     8   1.560
       245.080132       67.625115      206.510755     1     0     0     0     1   1.560
       321.890894      240.712633      490.156090     1     0     0     0     6   1.560
       442.206335      263.631421      215.728318     1     0     0     0     1   1.560
       327.516056        7.513037      203.710218     1     0     0     0     5   1.560
       311.328410      219.300442      381.662491     1     0     0     0     4   1.560
       223.729452      447.775902      301.037322     1     0     0     0     3   1.560
       334.168053      150.475247      483.523955     1     0     0     0     6   1.560
        41.787790       40.328470      351.012853     1     0     0     0     3   1.560
        27.396941        2.875437      186.958373     1     0     0     0     1   1.560
       295.050095      337.694094      277.432581     1     0     0     0     7   1.560
       103.722258      105.531009      462.234748     1     0     0     0     3   1.560
       442.610133      487.336757       26.764011     1     0     0     0     8   1.560
       307.659578      391.185975      309.979099     1     0     0     0     5   1.560
        38.950620      109.132395      425.006507     1     0     0     0     8   1.560
        30.718248      148.696422      328.806541     1     0     0     0     4   1.560
        78.716334      286.905319      257.047410     1     0     0     0     4   1.560
        56.049341      129.888302      399.033058     1     0     0     0     8   1.560
       291.067403      266.689664       30.376458     1     0     0     0     2   1.560
       344.867290      248.895669      185.530552     1     0     0     0     8   1.560
       365.983054      169.073871      353.194002     1     0     0     0     4   1.560
        14.164705      192.519202      370.236206     1     0     0     0     7   1.560
       376.503901      342.338851      354.686068     1     0     0     0     4   1.560
       100.345062      260.550506       79.895577     1     0     0     0     2   1.560
       119.144953      458.205767      116.264606     1     0     0     0     2   1.560
       120.628691      106.387491      450.508159     1     0     0     0     6   1.560
       108.237865      149.830184      367.191622     1     0     0     0     5   1.560
        88.560914       63.761448      102.627018     1     0     0     0     1   1.560
       310.218904      104.486010       38.404810     1     0     0     0     5   1.560
        56.367356      169.987358       63.709948     1     0     0     0     8   1.560
       436.125613      313.192306      193.946305     1     0     0     0     3   1.560
        23.201637      326.077679       18.325441     1     0     0     0     8   1.560
       458.751202      336.355205      146.096752     1     0     0     0     4   1.560
        32.820005      324.472379      123.217438     1     0     0     0     4   1.560
       402.637863        4.479661      302.326888     1     0     0     0     4   1.560
       172.920857      222.009016      258.104551     1     0     0     0     4   1.560
       272.254402       59.932510      286.914232     1     0     0     0     7   1.560
       366.494426       84.840907      386.642321     1     0     0     0     2   1.560
       356.180569      394.442065      465.618787     1     0     0     0     3   1.560
        84.171045      414.749212      280.817137     1     0     0     0     8   1.560
       435.976926      467.648286       73.547739     1     0     0     0     3   1.560
       267.285848      194.167322       79.327842     1     0     0     0     4   1.560
         4.349935      346.362142      265.171906     1     0     0     0     5   1.560
       465.982135      461.559091       70.141971     1     0     0     0     6   1.560
       121.399039        2.171266      296.927915     1     0     0     0     6   1.560
       310.727566      178.078219      152.317082     1     0     0     0     8   1.560
        26.300049      270.772306      107.159725     1     0     0     0     6   1.560
       328.204306       19.876776      171.544219     1     0     0     0     2   1.560
       195.046468      194.503703      432.152892     1     0     0     0     7   1.560
       230.661588      452.096700      105.683594     1     0     0     0     3   1.560
       238.517662      424.855489      491.657653     1     0     0     0     8   1.560
        40.862263      192.705148      192.611968     1     0     0     0     4   1.560
         0.896194      352.350497      487.203780     1     0     0     0     4   1.560
       146.943427      233.343566      220.062404     1     0     0     0     5   1.560
        65.214658      189.761923       32.887825     1     0     0     0     2   1.560
       206.477904      157.626928      188.361837     1     0     0     0     5   1.560
       245.185498      133.323271      258.660869     1     0     0     0     6   1.560
        15.284879      443.133894      116.206839     1     0     0     0     7   1.560
       284.461942      499.713341      235.444291     1     0     0     0     2   1.560
       133.487284        8.695875      437.097564     1     0     0     0     3   1.560
        53.085492      441.198945      116.404105     1     0     0     0     8   1.560
        44.430179      163.535162      380.206443     1     0     0     0     7   1.560
       263.906030      206.129366       96.454701     1     0     0     0     6   1.560
        63.745749       34.421858       94.782238     1     0     0     0     3   1.560
        64.891877      111.098521      301.637581     1     0     0     0     1   1.560
       215.679549      259.724521      375.760255     1     0     0     0     8   1.560
       375.747749      252.894765      179.663610     1     0     0     0     7   1.560
       450.935451      364.674999      420.399652     1     0     0     0     1   1.560
       342.391477      140.299219       52.541060     1     0     0     0     5   1.560
       459.871570      330.187868      372.587294     1     0     0     0     8   1.560
       447.183284      252.503898      156.674606     1     0     0     0     3   1.560
       187.033130      354.182015       18.260164     1     0     0     0     6   1.560
       339.510015      248.703098      300.894078     1     0     0     0     6   1.560
        95.685675       21.354009      148.419787     1     0     0     0     8   1.560
       133.464856      220.354274      437.304462     1     0     0     0     6   1.560
        11.391810      475.826208      345.404816     1     0     0     0     5   1.560
       179.394701      180.354202      162.050196     1     0     0     0     5   1.560
       462.157751      111.608180      388.846105     1     0     0     0     5   1.560
       380.018016      155.839311      263.161663     1     0     0     0     8   1.560
       410.501145      320.595292      406.663748     1     0     0     0     7   1.560
       255.374402      165.601290      197.580658     1     0     0     0     1   1.560
       383.441576      261.539056      113.968687     1     0     0     0     4   1.560
       487.076159      103.575799      418.792973     1     0     0     0     3   1.560
       171.122640       16.981074      405.128473     1     0     0     0     6   1.560
       499.602253      266.712052      469.974033     1     0     0     0     5   1.560
       283.157804      334.177951      458.440652     1     0     0     0     8   1.560
       105.311342      380.886268      241.430442     1     0     0     0     4   1.560
       392.707941      461.642532      257.017869     1     0     0     0     8   1.560
       333.479585      302.837723       32.224388     1     0     0     0     4   1.560
       172.443009      349.178657      481.134190     1     0     0     0     4   1.560
       238.451819      139.890229       90.771301     1     0     0     0     3   1.560
       230.273218       45.006707      185.402636     1     0     0     0     6   1.560
       152.920310       80.980886      200.051349     1     0     0     0     7   1.560
        51.655677      227.115523      380.462183     1     0     0     0     2   1.560
       493.444442      206.050395      124.662452     1     0     0     0     7   1.560
       452.984685      453.936977      184.328259     1     0     0     0     4   1.560
        53.366888      163.645144       13.967255     1     0     0     0     3   1.560
       339.767852      313.565352      279.263323     1     0     0     0     7   1.560
       378.600890      441.787097      448.090747     1     0     0     0     8   1.560
        79.984570      193.178967      384.008697     1     0     0     0     2   1.560
       469.277309      166.697997      167.422857     1     0     0     0     8   1.560
       256.387427      375.528150      386.267957     1     0     0     0     5   1.560
       338.522035      198.204066      401.027343     1     0     0     0     8   1.560
        54.226935       75.302953      331.917817     1     0     0     0     3   1.560
       413.838436      155.409270      390.941804     1     0     0     0     2   1.560
        18.236865       20.129493      312.576097     1     0     0     0     2   1.560
        25.344038      428.108344      320.140814     1     0     0     0     3   1.560
       140.877750      487.076333      180.193504     1     0     0     0     6   1.560
       105.575596      435.052081      119.532744     1     0     0     0     2   1.560
       408.631020      397.608329       56.991975     1     0     0     0     5   1.560
       406.279097      295.216567      124.903866     1     0     0     0     1   1.560
       297.705155      414.599462       29.561815     1     0     0     0     2   1.560
       104.058258      482.219959       67.097654     1     0     0     0     5   1.560
       192.786902      227.771095        6.257276     1     0     0     0     7   1.560
       213.206158      449.833635      348.732639     1     0     0     0     8   1.560
       394.067394      289.419772      157.343758     1     0     0     0     8   1.560
       261.482034      475.417548      313.748539     1     0     0     0     6   1.560
        27.320822       17.224273      475.989664     1     0     0     0     5   1.560
       360.465852      414.868084      220.348271     1     0     0     0     3   1.560
       109.802108       55.435716      203.998596     1     0     0     0     1   1.560
       405.247088       51.832280      115.224512     1     0     0     0     2   1.560
        12.693752      182.638443      294.462052     1     0     0     0     3   1.560
       339.003321      267.670140      446.203626     1     0     0     0     8   1.560
       200.938472       65.587835      244.712773     1     0     0     0     1   1.560
       489.128461      368.626762      241.066772     1     0     0     0     1   1.560
       176.893825      190.141469      484.362366     1     0     0     0     6   1.560
       388.864034      480.206074       72.081132     1     0     0     0     2   1.560
        43.123111      312.639617      152.943608     1     0     0     0     3   1.560
       370.721274      334.567606        7.965887     1     0     0     0     2   1.560
       309.015661       81.741004      289.958525     1     0     0     0     7   1.560
       421.135715      193.722536      301.431203     1     0     0     0     3   1.560
       142.880846      284.288672      200.780126     1     0     0     0     6   1.560
       100.046512      287.249299      115.509098     1     0     0     0     1   1.560
       131.966241      229.593627      162.084893     1     0     0     0     8   1.560
       341.940927      223.193535      424.210031     1     0     0     0     4   1.560
       109.678143      121.913486      396.584042     1     0     0     0     8   1.560
       485.998851      191.298424        2.683863     1     0     0     0     6   1.560
       144.197758      414.622637      215.030621     1     0     0     0     5   1.560
       465.137557      447.893811      486.687890     1     0     0     0     8   1.560
       362.277108      107.236451       24.995612     1     0     0     0     1   1.560
       158.421117      474.106414       53.891661     1     0     0     0     8   1.560
       356.300172       90.351084      222.260032     1     0     0     0     8   1.560
       393.477732      378.348180      315.617725     1     0     0     0     4   1.560
       435.500778      396.614173        4.805440     1     0     0     0     3   1.560
       325.499905      110.063752      461.715619     1     0     0     0     5   1.560
       191.074534      123.129671      350.725518     1     0     0     0     4   1.560
       493.198319      284.663776       59.454597     1     0     0     0     2   1.560
       309.723446      383.982440      411.733520     1     0     0     0     5   1.560
       299.292014      161.123171       30.036538     1     0     0     0     6   1.560
       460.562018      163.834619       22.811231     1     0     0     0     7   1.560
       285.601301      398.341114      436.781403     1     0     0     0     5   1.560
       342.000941      274.643615      345.369739     1     0     0     0     3   1.560
       338.514469      105.458138      354.662139     1     0     0     0     8   1.560
       419.454872      222.746522      274.166199     1     0     0     0     7   1.560
       405.355628      400.861716      182.438324     1     0     0     0     5   1.560
       357.199354      292.812129      348.857874     1     0     0     0     4   1.560
       383.195375       21.717700      350.679973     1     0     0     0     8   1.560
         2.635973      118.527089      400.488320     1     0     0     0     4   1.560
       368.650537      200.726361      485.993304     1     0     0     0     4   1.560
       341.780443      443.678256      438.594322     1     0     0     0     6   1.560
       195.906682      243.157446      301.628708     1     0     0     0     5   1.560
       133.518844      379.464540      421.687063     1     0     0     0     6   1.560
       256.341418      482.909879        7.441870     1     0     0     0     7   1.560
        15.434730       74.387888      284.405905     1     0     0     0     4   1.560
       393.964737      108.824543      111.991069     1     0     0     0     5   1.560
       240.478504      428.487795      306.742954     1     0     0     0     3   1.560
       158.070902      348.994022      445.556213     1     0     0     0     6   1.560
       468.657453      213.584666      175.992206     1     0     0     0     3   1.560
       282.504926      239.664079      459.131073     1     0     0     0     7   1.560
       481.790877      429.654816      209.393762     1     0     0     0     1   1.560
        87.235667       60.916871      261.065139     1     0     0     0     2   1.560
        49.419211      232.049721      465.961207     1     0     0     0     4   1.560
       308.314999      146.062096      304.731785     1     0     0     0     7   1.560
        35.842239      350.851273      316.089209     1     0     0     0     7   1.560
       459.543927      117.135484       75.493672     1     0     0     0     5   1.560
       224.554235       32.859604       52.331870     1     0     0     0     8   1.560
       255.730948       43.028513      267.104966     1     0     0     0     5   1.560
        87.528418      499.088104      395.429088     1     0     0     0     3   1.560
       429.883508      194.624784      347.610243     1     0     0     0     4   1.560
       259.762904       56.777191      430.925810     1     0     0     0     6   1.560
       136.958927       30.382030      336.975311     1     0     0     0     5   1.560
       335.643877      183.088783      149.963448     1     0     0     0     8   1.560
       283.892350      214.618388       45.008201     1     0     0     0     3   1.560
       146.668781      426.732118      146.838017     1     0     0     0     4   1.560
       212.670689      233.803749      215.796031     1     0     0     0     6   1.560
       127.123948      222.195365      367.444270     1     0     0     0     4   1.560
       105.509916      105.620823      192.911028     1     0     0     0     8   1.560
       126.989551       35.255616      128.235497     1     0     0     0     3   1.560
         5.285523       20.726696      409.992280     1     0     0     0     3   1.560
       499.741211       88.331218      150.709747     1     0     0     0     3   1.560
       270.011527      444.023112      106.151190     1     0     0     0     7   1.560
       443.486891       70.552710      127.934370     1     0     0     0     7   1.560
       194.735823      156.451117      498.660194     1     0     0     0     3   1.560
       130.079908      121.333473       83.007805     1     0     0     0     1   1.560
       246.044292       20.158558      247.836626     1     0     0     0     7   1.560
       221.934948      135.769019      197.183493     1     0     0     0     4   1.560
       265.909601      307.095668      139.985958     1     0     0     0     3   1.560
       287.956184      297.933816      267.590135     1     0     0     0     6   1.560
        95.824188      277.068482      398.539232     1     0     0     0     4   1.560
       401.825068      133.672877      368.545453     1     0     0     0     4   1.560
       469.689103      170.586852      289.813320     1     0     0     0     3   1.560
       238.129730      122.437564      307.488172     1     0     0     0     7   1.560
        58.102905      423.114977      116.908936     1     0     0     0     8   1.560
       491.766259      466.466224      127.291708     1     0     0     0     3   1.560
       440.412505        0.451642      426.036553     1     0     0     0     7   1.560
       147.659002      495.172498      211.711976     1     0     0     0     2   1.560
       351.777411      453.353268      168.323124     1     0     0     0     8   1.560
       398.008534       32.384366      136.115266     1     0     0     0     6   1.560
       258.885134      251.698431      109.093424     1     0     0     0     1   1.560
       238.216852       31.252927       31.390456     1     0     0     0     8   1.560
       133.994859      383.442523      456.302326     1     0     0     0     3   1.560
       418.781470      396.441192       23.609620     1     0     0     0     7   1.560
       420.841048       74.945820      373.387666     1     0     0     0     2   1.560
       137.911679      225.063819       25.124580     1     0     0     0     7   1.560
       330.834407      239.462259      265.535465     1     0     0     0     2   1.560
       413.060293       91.580703      243.470280     1     0     0     0     6   1.560
       343.048871      119.755337      277.781155     1     0     0     0     8   1.560
         7.141314      166.475225      182.981202     1     0     0     0     7   1.560
       389.495257      105.723429      191.430513     1     0     0     0     5   1.560
        38.287438      296.719887      482.475484     1     0     0     0     7   1.560
        96.066255      429.553717       29.054548     1     0     0     0     2   1.560
       477.123000      117.161591       34.303988     1     0     0     0     2   1.560
       132.526862       23.923676       48.529027     1     0     0     0     2   1.560
       302.914799      468.906894      303.336406     1     0     0     0     8   1.560
       353.044605       27.900506      322.747969     1     0     0     0     4   1.560
       357.232353      399.915052      303.804672     1     0     0     0     3   1.560
       402.866226      410.529842      275.461062     1     0     0     0     3   1.560
       426.830516      139.860848      414.185121     1     0     0     0     3   1.560
       478.371933      222.303342      449.463466     1     0     0     0     6   1.560
       442.014998      295.298398      415.821393     1     0     0     0     4   1.560
       410.127474      227.605167      397.995123     1     0     0     0     4   1.560
       462.276788      406.470887      470.681814     1     0     0     0     7   1.560
        81.995355      334.053624      160.182504     1     0     0     0     7   1.560
       386.211898      257.665529      296.223477     1     0     0     0     3   1.560
        61.374594      137.864902      453.792707     1     0     0     0     7   1.560
        66.747006       91.346539      482.683352     1     0     0     0     5   1.560
       188.004148      257.408050      363.835659     1     0     0     0     1   1.560
       118.741111       45.607645      378.627132     1     0     0     0     6   1.560
       251.819400      440.869164      248.055321     1     0     0     0     7   1.560
       127.536288      177.696304      304.552447     1     0     0     0     3   1.560
        40.747178      480.275894      137.488418     1     0     0     0     6   1.560
        21.553031      270.479076      115.193705     1     0     0     0     2   1.560
        18.027424      398.680100       36.612862     1     0     0     0     8   1.560
        91.119549       95.415874      371.100018     1     0     0     0     8   1.560
       496.404400      105.686950      494.806069     1     0     0     0     2   1.560
       129.415086      193.802174       55.806973     1     0     0     0     5   1.560
       393.976161      143.880250      398.435729     1     0     0     0     3   1.560
       394.046677      149.219034      333.097401     1     0     0     0     1   1.560
       215.551828      473.561991      344.531337     1     0     0     0     2   1.560
        11.517630      413.147512        8.450234     1     0     0     0     6   1.560
       369.903236      341.389433      376.792801     1     0     0     0     7   1.560
        16.741636      100.216244      182.949929     1     0     0     0     7   1.560
        69.698245      243.373077      369.625836     1     0     0     0     7   1.560
       249.096703      112.430353      204.126277     1     0     0     0     3   1.560
       288.076356      113.229568      316.330873     1     0     0     0     3   1.560
       218.662646      341.371831      105.545272     1     0     0     0     2   1.560
       128.713735       78.392652      129.688982     1     0     0     0     1   1.560
        10.190679       79.609794      216.698553     1     0     0     0     3   1.560
       136.306763       95.833830      315.963187     1     0     0     0     7   1.560
       226.222159       51.737373      492.091611     1     0     0     0     6   1.560
       287.045624      222.243157      195.057733     1     0     0     0     1   1.560
       446.475118      361.306552      146.834690     1     0     0     0     4   1.560
       475.778101      190.758210      303.553777     1     0     0     0     7   1.560
        20.977014      137.548545      218.625716     1     0     0     0     6   1.560
       189.390878       68.326360      374.863934     1     0     0     0     4   1.560
       379.825528      379.181108      190.005329     1     0     0     0     6   1.560
        25.538134       24.158592      449.220888     1     0     0     0     8   1.560
        30.372252      193.194355      432.653258     1     0     0     0     7   1.560
       328.236218      461.651069      245.219702     1     0     0     0     6   1.560
        14.585998      225.239475      149.566538     1     0     0     0     7   1.560
       229.160515      228.576824      481.213736     1     0     0     0     1   1.560
       142.518925      207.851146       77.848086     1     0     0     0     1   1.560
       363.583718      222.909061       32.116119     1     0     0     0     2   1.560
       390.877136      258.418877      129.745096     1     0     0     0     7   1.560
        82.632639      128.330843      409.667054     1     0     0     0     3   1.560
       191.481038      163.484128       41.017191     1     0     0     0     6   1.560
       387.438568      285.053551      237.769105     1     0     0     0     7   1.560
       425.984474      310.582452      479.444774     1     0     0     0     5   1.560
         1.968572      155.928330      328.774255     1     0     0     0     3   1.560
       468.296396      263.526699      288.520024     1     0     0     0     2   1.560
       135.823693      140.680737       76.639302     1     0     0     0     2   1.560
       218.115351      459.132369       33.761376     1     0     0     0     2   1.560
       442.674670      316.576214      194.165063     1     0     0     0     1   1.560