ITEM: TIMESTEP
0
ITEM: NUMBER OF ATOMS
        5110
ITEM: BOX BOUNDS pp pp pp
  0.0000000E+00   500.000000000000     
  0.0000000E+00   500.000000000000     
  0.0000000E+00   500.000000000000     
ITEM: ATOMS x y z nV nH f3 f4 orient
       144.746138      362.163542      387.351564     1     0     0     0     3
       181.704779      125.440457      428.979950     1     0     0     0     5
       436.434865      112.871082        0.546262     1     0     0     0     4
       161.566539      253.673099       89.381725     1     0     0     0     8
       177.023407      140.051948      163.746962     1     0     0     0     2
       325.654516       84.379980      378.967757     1     0     0     0     8
       424.728904      361.654652      189.877460     1     0     0     0     5
       479.554520      466.237339      383.862913     1     0     0     0     1
       317.800904      157.187265      121.339465     1     0     0     0     7
        67.793568      196.289773      488.618036     1     0     0     0     7
       241.361480       69.215786      221.805419     1     0     0     0     3
       187.787171      469.493134      241.516570     1     0     0     0     8
       275.053283      283.975278      238.435328     1     0     0     0     8
        54.988893      211.310677      452.535801     1     0     0     0     4
       119.574502      378.338038      452.516969     1     0     0     0     1
       177.643833      237.738329      371.063959     1     0     0     0     4
       235.636023      318.581292      384.967068     1     0     0     0     1
       173.431419      448.343891      362.108869     1     0     0     0     7
       264.382168      330.180874      387.142234     1     0     0     0     7
       238.466622      145.166282      229.254148     1     0     0     0     3
       158.136403      396.428884      276.546001     1     0     0     0     8
       192.483936      486.922426       80.021648     1     0     0     0     7
        64.237364      479.149154      161.315714     1     0     0     0     7
       412.739946      206.230226      225.014720     1     0     0     0     4
       326.495256      466.467112       70.379876     1     0     0     0     4
       169.801187      355.109339      139.203935     1     0     0     0     5
       355.910237      178.692489       19.751879     1     0     0     0     4
       433.390845      214.655336       86.414430     1     0     0     0     1
       165.239307      275.142996      408.765971     1     0     0     0     3
       280.658147      488.599138      252.603571     1     0     0     0     7
       402.621341      226.118967      463.866108     1     0     0     0     7
        29.096338      171.351542      388.649936     1     0     0     0     8
       191.591504       80.148153      258.151889     1     0     0     0     7
        61.992741       74.663774      433.959013     1     0     0     0     5
       341.899313      326.046202      105.666411     1     0     0     0     8
       491.765537      333.262419       87.899656     1     0     0     0     7
       132.402128      426.263244      460.218040     1     0     0     0     6
       295.486708      383.797335      484.785853     1     0     0     0     6
       232.631490      340.011835      410.668352     1     0     0     0     5
       343.095862      180.641247      310.806383     1     0     0     0     2
       373.621191      421.688324      480.060919     1     0     0     0     5
       267.407399      458.889615      414.984953     1     0     0     0     7
        57.946867      121.628532      375.911701     1     0     0     0     6
       331.061422      456.737824       36.754387     1     0     0     0     1
       104.056581       87.205763      473.680843     1     0     0     0     4
       421.460203      469.940924      242.537695     1     0     0     0     3
       145.439037      288.913952      465.923598     1     0     0     0     2
       153.157764       62.706689       30.536902     1     0     0     0     7
       418.718041      455.376494      245.908617     1     0     0     0     3
       456.012840      459.385567       57.219791     1     0     0     0     3
        64.077758       17.121370      135.607237     1     0     0     0     3
       407.063649      356.502676      149.552685     1     0     0     0     7
        28.035829      193.212754      265.950269     1     0     0     0     8
       371.886197      300.238266      262.242162     1     0     0     0     4
       496.380981       81.757875       41.398290     1     0     0     0     2
       176.215380       89.466650      389.473002     1     0     0     0     4
       140.615233       50.303589       45.349984     1     0     0     0     7
       351.773109      117.698679      299.591260     1     0     0     0     4
       460.919463      381.855131      263.931935     1     0     0     0     8
       149.556064        8.026125      221.321639     1     0     0     0     7
       391.255996      398.277121      278.913053     1     0     0     0     1
       369.701861      154.951805      154.507391     1     0     0     0     7
       107.648845      100.586839      382.159459     1     0     0     0     7
       399.813179       42.507822       52.407201     1     0     0     0     1
        74.205351      354.196133      348.158716     1     0     0     0     4
       406.121943      364.806139      233.926655     1     0     0     0     2
       342.083473      308.089583      348.997573     1     0     0     0     5
       402.205854       42.277912      140.089562     1     0     0     0     4
        63.784624      289.841327       92.177269     1     0     0     0     5
        21.328937      239.835625      389.548644     1     0     0     0     1
       260.765429      167.697619      300.318394     1     0     0     0     2
       395.095631      274.715870      456.433632     1     0     0     0     5
       331.791394      154.817742      445.285659     1     0     0     0     8
         8.306613      481.120290      399.731279     1     0     0     0     2
        70.453761      487.086464      274.348920     1     0     0     0     5
       235.160421      185.841259       39.323332     1     0     0     0     2
       214.824637      145.693126      422.672902     1     0     0     0     7
       425.675292      111.080181      382.346551     1     0     0     0     6
       310.309043      122.673701      161.083558     1     0     0     0     6
       345.221100      329.770108      184.497140     1     0     0     0     3
       458.450661       82.094402      482.170278     1     0     0     0     6
       131.813926      182.729663      126.839896     1     0     0     0     7
       150.539264      286.084030      393.161432     1     0     0     0     5
         3.345959      493.613132      171.363711     1     0     0     0     6
        28.095949      165.542507      163.715117     1     0     0     0     1
       248.117432       58.715489      243.698619     1     0     0     0     1
       284.350899      262.651209      432.209570     1     0     0     0     1
       335.886501      474.177928      132.128459     1     0     0     0     4
        40.833424      322.552241      403.269529     1     0     0     0     2
        68.635748      460.983365      235.420495     1     0     0     0     6
       138.526262      301.805574      189.443021     1     0     0     0     4
       147.837361      290.820063       13.250349     1     0     0     0     6
       323.764606      391.312761      410.774509     1     0     0     0     5
       339.327039      258.182915      285.747027     1     0     0     0     3
       468.829556      143.279423      416.172500     1     0     0     0     6
       231.511445      374.054326      437.935864     1     0     0     0     4
        83.004674       62.042919      433.768321     1     0     0     0     8
       479.565692      478.002732       48.138811     1     0     0     0     1
       375.369505        9.954952      416.375904     1     0     0     0     5
       304.131205      221.013461      187.916477     1     0     0     0     6
        61.168616      230.943244      151.912464     1     0     0     0     3
       194.209356      335.990383       79.558388     1     0     0     0     2
       486.996899      293.001356      418.637464     1     0     0     0     6
       215.061930      277.574745      411.358399     1     0     0     0     4
       146.622160      358.237720      142.744181     1     0     0     0     2
       178.236666      269.302045      132.717836     1     0     0     0     5
       319.515080      400.126223      141.461186     1     0     0     0     6
       358.576878      189.638548      116.400440     1     0     0     0     6
       444.053885      245.105083      242.711387     1     0     0     0     2
       485.887880      397.156650       49.462012     1     0     0     0     3
       349.243775      285.901885      391.403733     1     0     0     0     5
       452.027716      418.055087       57.510282     1     0     0     0     1
       295.299267      254.977120      292.498369     1     0     0     0     4
        49.250691       82.984335      136.562708     1     0     0     0     8
       457.926674      458.386145      446.172449     1     0     0     0     1
        90.951414      283.755607      253.053252     1     0     0     0     3
        38.909477      168.521459      288.615542     1     0     0     0     7
       486.927118      319.653652       27.308718     1     0     0     0     3
        73.122416      436.227532       97.765569     1     0     0     0     5
       457.574032       27.968836      275.661895     1     0     0     0     8
       152.741072        8.539838       34.548850     1     0     0     0     4
       114.238416       51.125777      412.785291     1     0     0     0     6
       443.901255      120.995112      187.179047     1     0     0     0     1
       130.935921      308.080243      378.576163     1     0     0     0     7
        10.184752      247.395880      356.003721     1     0     0     0     8
       111.467190      250.949380      215.546995     1     0     0     0     3
       399.523468      374.550804      303.881847     1     0     0     0     8
        42.452410      142.432524      425.144854     1     0     0     0     7
       142.757260      298.674896      481.268544     1     0     0     0     8
       135.826107       54.336707      405.494001     1     0     0     0     5
       203.792384       78.046033      278.788922     1     0     0     0     2
       282.300819      269.303072      280.353657     1     0     0     0     1
        73.590067       60.882281      127.119206     1     0     0     0     1
       440.568335       68.916432      492.402574     1     0     0     0     2
        42.510189      349.199971      478.099214     1     0     0     0     4
       298.983689      282.281685      442.649420     1     0     0     0     7
       495.580127      277.028908      170.035349     1     0     0     0     3
       298.340418      473.204476       42.347229     1     0     0     0     6
        17.462049        9.789058      496.600763     1     0     0     0     8
        46.065391      478.541650      237.158824     1     0     0     0     3
       303.596484      278.436486      492.401682     1     0     0     0     4
        15.033831      413.229073      429.068118     1     0     0     0     3
       239.047188      187.467570      189.407588     1     0     0     0     2
       168.107855       39.671796      342.665390     1     0     0     0     4
       345.730584      115.139043       57.412550     1     0     0     0     8
       478.205064      429.068868      100.011400     1     0     0     0     6
       124.448613      135.812218      179.371404     1     0     0     0     7
        46.660022       14.669703      217.703646     1     0     0     0     4
       267.684419      468.155581      363.338909     1     0     0     0     2
       195.401465      269.060412      160.327521     1     0     0     0     7
       447.183434      200.129727       18.939895     1     0     0     0     2
       109.154053      342.216652      300.734917     1     0     0     0     5
       118.354571      373.844710      161.953837     1     0     0     0     8
         4.491445      436.152823      293.813627     1     0     0     0     6
       471.086883      199.654654      442.037819     1     0     0     0     6
       235.611997      250.175831      371.755023     1     0     0     0     8
       280.791600      393.835662      410.070711     1     0     0     0     2
       186.653674      360.990869      434.722715     1     0     0     0     4
         7.675746      127.287838      424.771163     1     0     0     0     2
       103.520605      318.972463        5.778300     1     0     0     0     7
       456.001025      341.919377      412.230573     1     0     0     0     8
       252.508804      440.722121      121.442130     1     0     0     0     8
        23.268004       81.409223       52.726006     1     0     0     0     5
       154.439380      358.142616      324.201125     1     0     0     0     3
       243.880132       44.258096      168.108620     1     0     0     0     2
        44.620417      230.251653      130.620286     1     0     0     0     3
       467.395733      101.581782       51.257499     1     0     0     0     4
       335.561229      406.133796      142.734278     1     0     0     0     2
       163.806098       29.422332       81.434866     1     0     0     0     8
       194.870604      499.681546      426.261128     1     0     0     0     4
       408.377658      158.474015       45.503175     1     0     0     0     2
       116.421282       10.727283      254.003433     1     0     0     0     5
       315.882511      477.679625      261.804266     1     0     0     0     2
       112.419316      172.305843      245.941327     1     0     0     0     2
       199.789726      374.438787      380.567708     1     0     0     0     5
       404.233396       63.135139      462.398480     1     0     0     0     2
       440.257277      392.271342      220.047500     1     0     0     0     7
       450.874459       94.701413      322.669545     1     0     0     0     1
       329.607632      352.215976      485.184829     1     0     0     0     7
       467.006162      344.080606      411.712228   171     0     0     0     3
       290.570594      258.924686      240.493783     1     0     0     0     4
       452.254370        4.533821      399.354155     1     0     0     0     1
       420.808294      430.559452      183.881287     1     0     0     0     5
       375.452439      304.552061      329.696019     1     0     0     0     6
       180.333620      334.035049      228.470394     1     0     0     0     3
       258.021990       59.354663      331.504801     1     0     0     0     3
       393.555672       43.532740       14.174754     1     0     0     0     6
       158.486357      237.963637      281.507270     1     0     0     0     6
       317.440397      117.036422      174.343348     1     0     0     0     8
       388.502025      455.368177      422.016770     1     0     0     0     6
       155.656388      179.214729      185.356451     1     0     0     0     5
       224.062800      255.268534      287.030143     1     0     0     0     6
       100.316429      284.953730      250.104391     1     0     0     0     5
         8.756798       28.013743      172.078918     1     0     0     0     6
       436.751516      337.105572       41.386104     1     0     0     0     8
       403.292530      161.186492      243.651466     1     0     0     0     2
       213.218233      465.353583      411.755354     1     0     0     0     6
       122.244957      166.768748      492.676844     1     0     0     0     6
       117.778727      439.792875      468.918404     1     0     0     0     2
       133.961296      198.137992       93.499331     1     0     0     0     2
       242.747800       32.638829      103.660865     1     0     0     0     5
       269.432000      473.295040      221.439289     1     0     0     0     3
        65.253071       91.756371      242.391517     1     0     0     0     1
       205.504509      150.080972      430.771639     1     0     0     0     4
       259.502783      208.452545      425.417932     1     0     0     0     7
       369.669463      493.167418      205.056442     1     0     0     0     3
       408.017684      337.628971      147.219753     1     0     0     0     1
        98.873677       27.872846      273.511868     1     0     0     0     4
        15.210998      238.611685      372.365202     1     0     0     0     3
       109.360056       97.325449       62.763043     1     0     0     0     1
       189.944378      383.336084      353.283926     1     0     0     0     8
       247.714116       32.811076      182.416390     1     0     0     0     6
       270.319734      275.017854       84.014627     1     0     0     0     3
         5.170315      200.186221      309.844071     1     0     0     0     7
       377.167382      350.957842      139.411039     1     0     0     0     7
       184.450052      188.730823      227.559956     1     0     0     0     1
       190.186609       22.996821      302.950873     1     0     0     0     4
       239.244905      391.309737      494.258887     1     0     0     0     7
       364.170469      202.987456      204.308113     1     0     0     0     4
       165.464442      308.447144       15.051682     1     0     0     0     5
        61.889238       62.192493       17.896348     1     0     0     0     1
        25.692705      169.465526       11.360102     1     0     0     0     8
       368.404271      457.595934      164.023747     1     0     0     0     5
       398.229101      155.738166      364.645863     1     0     0     0     1
        80.570158      402.144524      321.991057     1     0     0     0     1
       225.757005      209.048033       39.037871     1     0     0     0     1
       103.410095      457.019763       83.303638     1     0     0     0     2
       285.940321      305.903209      129.964288     1     0     0     0     8
       247.445487      380.419802      272.530356     1     0     0     0     2
       478.418904      314.959652      236.210187     1     0     0     0     4
       286.083856      466.248012      175.928430     1     0     0     0     1
       448.268342      348.745946      286.673697     1     0     0     0     3
       476.632687      231.325531       84.385118     1     0     0     0     5
        58.734968      351.282381      290.201719     1     0     0     0     7
       498.184302      409.936290      485.511622     1     0     0     0     7
       323.221584      425.146149      467.822547     1     0     0     0     1
       396.995449      362.656172      381.341770     1     0     0     0     4
       296.222307      406.557285      453.807005     1     0     0     0     1
       243.960872      439.594163      278.586984     1     0     0     0     8
       398.851044      403.541041       22.729211     1     0     0     0     3
       489.209348      256.194758      379.675342     1     0     0     0     5
       194.101415        8.896265       45.840063     1     0     0     0     7
       317.937246      277.613834      151.332259     1     0     0     0     4
       475.007575      204.527483      215.715666     1     0     0     0     1
       374.808445      461.132701      331.134427     1     0     0     0     3
        39.370281      196.852868       95.117329     1     0     0     0     3
       489.703683      297.092363       93.786072     1     0     0     0     3
       377.861896      382.033709      392.886438     1     0     0     0     7
       278.217484      440.712147      417.304667     1     0     0     0     2
       127.803480      387.658097      289.411659     1     0     0     0     7
       273.213855       55.055117      427.281953     1     0     0     0     5
       131.240747      152.682313      126.718020     1     0     0     0     8
       297.684134      263.843526      367.820553     1     0     0     0     7
       166.437596       96.220516      261.301353     1     0     0     0     1
       482.694559      274.999867      288.082041     1     0     0     0     5
        33.042586      108.281079      477.750919     1     0     0     0     1
       477.043538      395.736429      410.521993     1     0     0     0     2
        55.115668       90.674727       79.603185     1     0     0     0     4
       399.957810       78.569307      188.246757     1     0     0     0     5
       335.692022      438.141450      367.803438     1     0     0     0     1
       247.385441       93.873144      255.399122     1     0     0     0     6
       464.871047      499.333709      288.661023     1     0     0     0     3
       308.966918      434.065150      112.906319     1     0     0     0     1
       415.044737      232.891313      466.457865     1     0     0     0     2
       458.156684      271.495231      180.231669     1     0     0     0     7
       354.972682       33.521195      170.773359     1     0     0     0     2
       376.073111      108.546093      386.306331     1     0     0     0     7
        82.923151      469.480815      241.943256     1     0     0     0     6
       127.280090      388.475064      316.814458     1     0     0     0     7
       441.380432      248.571430      377.053809     1     0     0     0     4
       492.847307      196.450275      233.508024     1     0     0     0     2
       462.154692       56.684483      177.023730     1     0     0     0     5
        23.809803       34.493831       31.547069     1     0     0     0     5
       230.674715      172.365785      276.556697     1     0     0     0     5
       432.616203      463.057591       37.302366     1     0     0     0     6
       284.726100       20.176277       81.863591     1     0     0     0     3
       386.482316      278.828598      101.346071     1     0     0     0     1
       318.937130       11.984535      337.409767     1     0     0     0     1
       164.882082      469.112591      397.328890     1     0     0     0     5
       470.484795      467.645443      357.083195     1     0     0     0     4
       202.428676      343.245481      324.224875     1     0     0     0     7
       127.864785      374.424981      324.768470     1     0     0     0     2
       163.625902      198.594596      372.667002     1     0     0     0     2
       297.069189      183.047683      436.583147     1     0     0     0     6
       390.919024       99.071409      112.415021     1     0     0     0     5
       232.278908      397.710957      187.304911     1     0     0     0     3
       427.598821       88.461487      498.753166     1     0     0     0     8
       219.412290      169.339919      291.051268     1     0     0     0     6
       317.723688      426.546402      273.383045     1     0     0     0     3
       262.080931       15.745641      426.604209     1     0     0     0     4
       143.734710      144.371596        4.948077     1     0     0     0     1
       430.509419      249.109764      402.762482     1     0     0     0     5
       370.433843      254.959717      469.000407     1     0     0     0     7
        63.701450      333.655299      288.837902     1     0     0     0     8
       216.868774       45.069424      275.581806     1     0     0     0     1
       385.425697       20.859886      362.047493     1     0     0     0     3
       481.524677      182.642077      312.428759     1     0     0     0     4
       381.916415       46.867452      244.430820     1     0     0     0     8
        90.684096        0.987193      107.829314     1     0     0     0     6
       119.806214      443.255239      106.786940     1     0     0     0     1
       465.521480      412.793185      480.929401     1     0     0     0     3
       291.653385      370.907857      185.321396     1     0     0     0     8
        77.920287      375.416067      220.676953     1     0     0     0     2
       372.582300       25.510530      309.082165     1     0     0     0     8
       184.481077      255.978191      186.516274     1     0     0     0     2
       292.239562      170.636393      450.297355     1     0     0     0     3
        73.391481      258.408103       86.958266     1     0     0     0     8
       183.613713      304.517637      381.525659     1     0     0     0     4
       415.356957       46.639001       61.784144     1     0     0     0     1
       191.471690        2.601652      145.146953     1     0     0     0     8
       107.048394      374.378419      375.052841     1     0     0     0     3
       415.063182      210.074461      495.736363     1     0     0     0     5
       132.473714      190.557767      155.347447     1     0     0     0     2
       487.596890      368.458895      125.907078     1     0     0     0     1
       380.733405        6.215896      116.447570     1     0     0     0     1
        73.212028      185.164660      332.453461     1     0     0     0     8
       192.980404      452.735917      272.432452     1     0     0     0     3
       245.262371      418.650703      409.810809     1     0     0     0     6
       211.485205      261.911806      358.509235     1     0     0     0     3
       229.158371      339.789248      233.972389     1     0     0     0     2
       478.747384      286.680553      147.581136     1     0     0     0     5
       368.038164      169.013311      105.436493     1     0     0     0     8
        79.907347      229.519619      477.119770     1     0     0     0     3
       281.332304      319.625487      468.271507     1     0     0     0     8
       243.692934       42.643701      420.564472     1     0     0     0     1
       351.914240      109.756413      255.877561     1     0     0     0     1
       276.556157      255.287344      309.666603     1     0     0     0     6
       408.012739      252.702596      432.541936     1     0     0     0     4
        14.716373        4.470505      221.125758     1     0     0     0     8
       270.392142      322.047967      263.085905     1     0     0     0     2
       218.167657      152.510509      244.641473     1     0     0     0     3
       248.364465       20.412118      101.415963     1     0     0     0     6
       446.163979      102.158790      120.202834     1     0     0     0     3
       280.493744      303.938687      476.132274     1     0     0     0     7
       131.884238       50.053184       15.828586     1     0     0     0     2
       389.573275      213.365605      369.803504     1     0     0     0     3
        27.621068       38.199908      217.855350     1     0     0     0     3
       138.713468      266.555505      168.664705     1     0     0     0     3
        84.674625      110.312683      351.877791     1     0     0     0     7
       494.428543      229.187927       49.070126     1     0     0     0     8
       238.865571      450.920956      394.620765     1     0     0     0     3
       290.783358      308.731100      320.675112     1     0     0     0     8
        22.781213        4.056363      208.696897     1     0     0     0     2
       123.978185      187.359243      214.518248     1     0     0     0     7
       316.315430      206.740948      411.317255     1     0     0     0     7
       114.871321      276.821423      229.928518     1     0     0     0     3
       185.921242      449.731143      209.730908     1     0     0     0     8
       499.089665      466.513644      108.531511     1     0     0     0     7
       153.103658      468.165998      389.720529     1     0     0     0     1
       349.808744      236.937259      100.697670     1     0     0     0     7
       142.583639      281.275604      118.462114     1     0     0     0     2
       264.544153      416.351397      456.370047     1     0     0     0     3
        76.825393       19.111834      231.573063     1     0     0     0     8
       289.673501      110.300782      280.458149     1     0     0     0     3
       269.492718      115.676689      231.431114     1     0     0     0     4
       379.407199      493.555166      339.988435     1     0     0     0     4
        40.517936      251.848050       76.817571     1     0     0     0     5
       430.737009        8.049889      373.867283     1     0     0     0     3
       100.287018       41.803882      352.355287     1     0     0     0     8
       100.825537      460.339123       70.207240     1     0     0     0     4
       309.913235      479.449463      105.281823     1     0     0     0     2
       300.654779      437.138344      291.406296     1     0     0     0     2
       356.236195      181.741414      383.335248     1     0     0     0     7
       306.063526      320.131230      204.489409     1     0     0     0     7
       436.900853      398.730038      178.538274     1     0     0     0     5
       349.138401       20.360589      182.480757     1     0     0     0     1
       318.356562       69.051982      496.388538     1     0     0     0     6
       183.256694      455.887439      380.596349     1     0     0     0     5
       176.194353      321.744439      499.488394     1     0     0     0     3
       374.734753      407.074760      396.345292     1     0     0     0     7
       191.813715      262.075586      119.244191     1     0     0     0     7
       464.817696      259.467603      352.011435     1     0     0     0     5