ITEM: TIMESTEP
0
ITEM: NUMBER OF ATOMS
        4862
ITEM: BOX BOUNDS pp pp pp
  0.0000000E+00   500.000000000000     
  0.0000000E+00   500.000000000000     
  0.0000000E+00   500.000000000000     
ITEM: ATOMS x y z f1 f2 f3 f4 orient radius
       120.952620      475.894445       82.523313     1     0     0     0     8   1.560
       427.172463      295.413126      434.971161     1     0     0     0     3   1.560
       359.999162      487.958548      417.507367     1     0     0     0     3   1.560
        68.121320      451.017424       34.239381     1     0     0     0     5   1.560
       499.730348      309.324781      158.637839     1     0     0     0     2   1.560
       286.903997      125.463081      304.765345     1     0     0     0     3   1.560
        12.412916       12.995964      491.492777     1     0     0     0     4   1.560
       484.753059      180.313543       54.551226     1     0     0     0     2   1.560
       128.758063      165.365757      442.465494     1     0     0     0     8   1.560
        21.416342       71.902846       32.781739     1     0     0     0     7   1.560
        49.738981       77.847934      125.656681     1     0     0     0     5   1.560
       326.331259      332.368352      353.184254     1     0     0     0     7   1.560
       120.899365      170.722833      162.626347     1     0     0     0     2   1.560
       144.126324      328.242597      400.543622     1     0     0     0     4   1.560
       456.265165      122.857874       42.037460     1     0     0     0     2   1.560
       164.580653      434.840147      493.409608     1     0     0     0     7   1.560
       481.730803      285.290990      365.781450     1     0     0     0     4   1.560
       360.671316      192.233979      150.460041     1     0     0     0     1   1.560
        77.287923       61.337882      176.241932     1     0     0     0     6   1.560
       270.571184       64.896008       94.670779     1     0     0     0     4   1.560
       471.621431      300.105340      105.674253     1     0     0     0     1   1.560
        95.857213      193.492605      166.180578     1     0     0     0     2   1.560
       308.323574      231.245351      229.135905     1     0     0     0     5   1.560
       160.549857      355.061879      271.425877     1     0     0     0     3   1.560
       234.604035      103.321635      293.343543     1     0     0     0     6   1.560
        21.646777      267.993459       83.845116     1     0     0     0     2   1.560
       246.829375       40.480974       72.542972     1     0     0     0     2   1.560
       407.340746      312.972368      106.331651     1     0     0     0     5   1.560
       163.543119       93.028189      149.802501     1     0     0     0     6   1.560
       224.000438      305.574128      170.276059     1     0     0     0     3   1.560
       490.560220       46.883511      167.126514     1     0     0     0     6   1.560
        99.564634       82.237911       94.152640     1     0     0     0     4   1.560
        91.202596      190.387608      345.796527     1     0     0     0     5   1.560
       288.996807      479.599183      496.511807     1     0     0     0     4   1.560
       421.258392      369.571883      194.520538     1     0     0     0     1   1.560
       196.528849      383.189173       98.935960     1     0     0     0     7   1.560
       270.281226      344.833945      499.097883     1     0     0     0     1   1.560
       426.776472      415.685691      454.169281     1     0     0     0     6   1.560
       361.661933       91.971231      499.721020     1     0     0     0     3   1.560
       404.278922      206.161756       92.299383     1     0     0     0     6   1.560
       152.027545       57.562649      276.988441     1     0     0     0     3   1.560
        97.690946        2.018027      400.024549     1     0     0     0     4   1.560
        84.715122       63.542944      488.534573     1     0     0     0     8   1.560
        79.098890      253.237269       50.313020     1     0     0     0     1   1.560
       137.767829       22.219632      206.215336     1     0     0     0     5   1.560
       217.063997       86.566681        5.311866     1     0     0     0     5   1.560
       203.992558      158.920908      196.556169     1     0     0     0     2   1.560
       334.500710      250.476682      226.332697     1     0     0     0     1   1.560
       140.456031      455.201558       62.661482     1     0     0     0     5   1.560
       260.706322      317.959306      132.330856     1     0     0     0     1   1.560
       230.201861      166.818460      301.720054     1     0     0     0     3   1.560
       333.731229      345.015573      354.250387     1     0     0     0     3   1.560
       230.350639      455.098220      218.603060     1     0     0     0     8   1.560
       190.791026      237.772823      455.346872     1     0     0     0     1   1.560
       423.878503      476.775110      433.952653     1     0     0     0     7   1.560
       370.397510      359.533464      255.434593     1     0     0     0     3   1.560
        84.747944      118.979823       75.473949     1     0     0     0     4   1.560
       416.447825      479.994865       62.290894     1     0     0     0     7   1.560
       479.930622       55.049070      364.814799     1     0     0     0     7   1.560
       468.486893      233.619650      175.356854     1     0     0     0     6   1.560
       189.411481      304.594899      273.390920     1     0     0     0     8   1.560
       162.410755      109.044822      314.489618     1     0     0     0     7   1.560
       427.562514      478.055374      325.835670     1     0     0     0     4   1.560
       493.148044       40.895069       94.879093     1     0     0     0     3   1.560
       492.748050      153.921752       89.233988     1     0     0     0     3   1.560
       216.267609      456.544208      127.617218     1     0     0     0     4   1.560
       363.703450      315.205684      458.324794     1     0     0     0     7   1.560
       421.376147      250.404138      356.344580     1     0     0     0     5   1.560
       122.444783      289.531984      318.497372     1     0     0     0     3   1.560
       320.104329       14.508966      221.910790     1     0     0     0     1   1.560
       153.868224       35.904182      438.230891     1     0     0     0     2   1.560
       151.336053      213.544777      437.484467     1     0     0     0     4   1.560
        37.340262       62.755382      444.303867     1     0     0     0     7   1.560
       459.694516      370.878792      131.197308     1     0     0     0     5   1.560
       483.747664      456.660455      207.129198     1     0     0     0     6   1.560
        73.863989      118.245876      298.076805     1     0     0     0     4   1.560
       218.619911      352.021886      214.873902     1     0     0     0     6   1.560
        85.079863       33.846080      335.625457     1     0     0     0     4   1.560
       301.210830      294.667006      251.774867     1     0     0     0     8   1.560
       208.854894       12.017928      197.660818     1     0     0     0     3   1.560
       211.325328      376.525808      321.619353     1     0     0     0     2   1.560
       278.456190      443.338333      193.843200     1     0     0     0     8   1.560
       461.802753      487.953020      382.525791     1     0     0     0     2   1.560
       122.936396      485.669807      323.588933     1     0     0     0     3   1.560
       385.044281       86.454333      417.969983     1     0     0     0     8   1.560
       112.177612      233.358392      266.650165     1     0     0     0     8   1.560
       323.395463      129.914168      229.655930     1     0     0     0     8   1.560
       363.439284      421.951241      395.393687     1     0     0     0     7   1.560
        80.495673      298.208371      388.861513     1     0     0     0     8   1.560
        82.492536      486.108810      216.202392     1     0     0     0     6   1.560
       405.807840      255.725488      105.088464     1     0     0     0     1   1.560
       388.586398      146.061253      249.584349     1     0     0     0     7   1.560
       279.392202      186.476130        3.160960     1     0     0     0     2   1.560
       101.105990      416.149660      291.834165     1     0     0     0     3   1.560
       113.246284      492.576014      320.205721     1     0     0     0     1   1.560
        91.787624      115.350888      358.279666     1     0     0     0     4   1.560
       348.017366       56.860374      329.310685     1     0     0     0     7   1.560
       319.192043      280.381664       33.447542     1     0     0     0     3   1.560
       333.075465       68.945623       25.025067     1     0     0     0     7   1.560
       418.503112      358.621579      448.155314     1     0     0     0     2   1.560
       269.892615      157.185289      146.239442     1     0     0     0     5   1.560
       111.986673      178.247513      210.779590     1     0     0     0     7   1.560
       290.382536      486.653767      222.465603     1     0     0     0     3   1.560
       418.473158      167.180191      333.456814     1     0     0     0     3   1.560
       209.780186      394.379358      260.055757     1     0     0     0     5   1.560
        82.525066      498.767524      290.703850     1     0     0     0     4   1.560
        83.541324       89.343738      393.124194     1     0     0     0     2   1.560
       307.502856      106.839883      299.639063     1     0     0     0     3   1.560
        16.578273      319.392228      348.695939     1     0     0     0     4   1.560
       131.060937      291.327886      359.539596     1     0     0     0     5   1.560
       406.186334       48.811908      215.006372     1     0     0     0     4   1.560
       488.723453      265.184429      494.519223     1     0     0     0     6   1.560
       143.968156       22.658433       64.443510     1     0     0     0     7   1.560
       371.267925       67.421897      343.218192     1     0     0     0     8   1.560
       163.665030      409.633159      417.811331     1     0     0     0     5   1.560
       434.705206      360.785210      411.426017     1     0     0     0     2   1.560
       408.583115      321.756130      305.758707     1     0     0     0     8   1.560
        56.238578      223.242047      184.545514     1     0     0     0     6   1.560
       111.294731       41.675514      263.424559     1     0     0     0     2   1.560
       347.510263      325.669813      366.322423     1     0     0     0     7   1.560
        31.282696       91.093042      102.887398     1     0     0     0     1   1.560
       496.543574      111.614255      450.510243     1     0     0     0     3   1.560
       280.624723      304.502947      237.471153     1     0     0     0     2   1.560
       249.618825      442.022181      249.260133     1     0     0     0     1   1.560
       475.769561      488.810543      386.445266     1     0     0     0     5   1.560
        39.617886      190.818263      434.556489     1     0     0     0     7   1.560
        63.372488      309.082377       39.179285     1     0     0     0     1   1.560
       112.945899      371.712293      467.149478     1     0     0     0     2   1.560
       218.926127      170.002119       53.765552     1     0     0     0     5   1.560
       482.998435      365.495955      221.925107     1     0     0     0     1   1.560
       386.716667      455.228615      184.258084     1     0     0     0     6   1.560
       178.028579      281.031547        5.989096     1     0     0     0     6   1.560
       201.239260      358.376513      445.562004     1     0     0     0     7   1.560
       277.617985      176.120365      215.266248     1     0     0     0     1   1.560
        15.441367      381.671881      317.903667     1     0     0     0     4   1.560
       229.191282      247.095928      286.489341     1     0     0     0     2   1.560
       132.318682      418.390475      430.037199     1     0     0     0     4   1.560
       240.306577      371.156234      268.914637     1     0     0     0     2   1.560
       171.191100      303.424791      362.812668     1     0     0     0     3   1.560
         2.554810      366.212068       73.695835     1     0     0     0     1   1.560
       247.373358      168.169922      188.755146     1     0     0     0     5   1.560
       306.310557      114.642458      367.000435     1     0     0     0     5   1.560
       173.040433      409.093556      145.375006     1     0     0     0     5   1.560
       361.282535      218.491760      348.675214     1     0     0     0     2   1.560
       291.081653      307.595681      234.070745     1     0     0     0     3   1.560
       180.554175      287.708093      288.096350     1     0     0     0     6   1.560
       104.203265      405.216760      186.190730     1     0     0     0     5   1.560
       189.480185      222.680549       70.712376     1     0     0     0     5   1.560
       255.919939      167.800556      420.826598     1     0     0     0     5   1.560
       492.706860      173.243590       13.610700     1     0     0     0     6   1.560
        20.170527       42.335871      214.507228     1     0     0     0     1   1.560
       473.892548      453.663533      452.513486     1     0     0     0     2   1.560
       343.082355      225.173197      358.509233     1     0     0     0     2   1.560
       407.472459      282.752373      358.424389     1     0     0     0     7   1.560
       147.125351      335.361592       52.581417     1     0     0     0     1   1.560
        44.665440       45.280337      304.108815     1     0     0     0     1   1.560
       288.335050      314.483584      195.687373     1     0     0     0     1   1.560
       366.127341      215.582720      393.537720     1     0     0     0     4   1.560
       231.172607      110.186825      147.820902     1     0     0     0     3   1.560
       469.933078      320.332112      231.580518     1     0     0     0     6   1.560
       200.010448      198.367320      238.945138     1     0     0     0     5   1.560
       242.208554       68.357505      142.429703     1     0     0     0     6   1.560
       397.644815       91.863717      195.672566     1     0     0     0     5   1.560
       454.694557      357.622663      220.177043     1     0     0     0     2   1.560
        23.081164      135.734809      242.639166     1     0     0     0     7   1.560
       392.575045       17.890939       99.426898     1     0     0     0     6   1.560
        32.285872      229.434077      157.933798     1     0     0     0     3   1.560
       456.317581       25.801940      207.725984     1     0     0     0     6   1.560
       409.273792      290.884005      334.467008     1     0     0     0     6   1.560
       490.484493       33.829793        9.227603     1     0     0     0     2   1.560
       379.488281      328.570005       35.393581     1     0     0     0     7   1.560
       338.556482      134.110257        8.350105     1     0     0     0     7   1.560
       234.482220      217.049259      468.330090     1     0     0     0     5   1.560
       189.608963      171.402132      208.628487     1     0     0     0     1   1.560
        44.792748      362.228087      127.836197     1     0     0     0     2   1.560
       146.254605      372.853372      245.889047     1     0     0     0     5   1.560
       428.158070      138.624296      486.844598     1     0     0     0     4   1.560
        51.490853      106.839464      480.714207     1     0     0     0     4   1.560
        93.006191      485.144905      202.206398     1     0     0     0     3   1.560
       447.223343      241.423512      228.059507     1     0     0     0     2   1.560
       354.849244      483.821340      213.966269     1     0     0     0     4   1.560
       229.855526      178.987788      116.332218     1     0     0     0     8   1.560
        99.845523      438.650153       77.023373     1     0     0     0     3   1.560
       144.082661      166.738526      468.644288     1     0     0     0     5   1.560
       349.428120      162.894134      354.933616     1     0     0     0     3   1.560
       332.784044      194.640673      240.964260     1     0     0     0     6   1.560
       299.714103      420.129311       63.581332     1     0     0     0     4   1.560
       274.533235      159.679273      268.929540     1     0     0     0     5   1.560
        38.479072      342.886938      334.174107     1     0     0     0     3   1.560
        72.723445      328.242747      432.422569     1     0     0     0     4   1.560
       315.577584       85.474002      496.420475     1     0     0     0     7   1.560
        38.888126      159.037877      408.803708     1     0     0     0     4   1.560
        78.345115      480.535019      452.157161     1     0     0     0     6   1.560
       136.948316      358.627537      458.952605     1     0     0     0     1   1.560
       492.636761       72.101575      261.796124     1     0     0     0     6   1.560
       365.725820      399.643095      400.138015     1     0     0     0     7   1.560
       358.540947      252.181800      147.258437     1     0     0     0     6   1.560
       253.705049      115.419424      278.195853     1     0     0     0     6   1.560
       273.238999      213.292077      278.112966     1     0     0     0     1   1.560
       348.204660      420.201661      150.151528     1     0     0     0     6   1.560
        11.436096      443.878296      146.283253     1     0     0     0     6   1.560
        61.618523      210.755271      437.140580     1     0     0     0     5   1.560
        41.850306      360.221062      469.217426     1     0     0     0     5   1.560
       272.477205       68.264244      387.182692     1     0     0     0     4   1.560
        18.299128        3.505954       81.409129     1     0     0     0     2   1.560
       488.955715      409.725961      374.721379     1     0     0     0     3   1.560
       177.831933       40.091090       29.860645     1     0     0     0     2   1.560
       140.119028      150.269299      149.012853     1     0     0     0     1   1.560
       240.194599      279.563076      466.421887     1     0     0     0     8   1.560
       375.627625      125.120446      344.994245     1     0     0     0     3   1.560
       311.459949      478.780916      483.026236     1     0     0     0     5   1.560
       466.696421       75.456886       32.628446     1     0     0     0     1   1.560
       239.305478      342.317159      442.028974     1     0     0     0     2   1.560
       306.659204      414.945642      221.302966     1     0     0     0     8   1.560
       369.048420      138.214214      389.273833     1     0     0     0     2   1.560
       248.914984      123.855636      331.114295     1     0     0     0     8   1.560
        25.493143      298.614626      170.408121     1     0     0     0     3   1.560
       382.566180      136.136715      345.512670     1     0     0     0     8   1.560
       337.337378      103.015094      338.700128     1     0     0     0     6   1.560
       478.219840        4.753360       39.701440     1     0     0     0     2   1.560
        15.453539      406.863010      295.657856     1     0     0     0     7   1.560
       467.597197      334.027960      360.385267     1     0     0     0     6   1.560
        62.373827      389.980622      233.568821     1     0     0     0     1   1.560
        69.491408       18.461921      383.477013     1     0     0     0     3   1.560
       199.801346      380.010714       25.673931     1     0     0     0     4   1.560
       119.354987      114.561357      181.238608     1     0     0     0     3   1.560
       121.823183      400.028833      367.894360     1     0     0     0     1   1.560
       272.951200      346.775551      262.844981     1     0     0     0     8   1.560
       412.690893      288.361477      163.788438     1     0     0     0     1   1.560
       199.043664       54.708363      423.124485     1     0     0     0     5   1.560
       277.466494      425.948817      121.866472     1     0     0     0     2   1.560
        52.037545      235.788869      491.142241     1     0     0     0     7   1.560
       305.947203      468.079592      386.806961     1     0     0     0     7   1.560
       452.635841      348.021182      283.361607     1     0     0     0     8   1.560
        86.895459      231.770702      231.699167     1     0     0     0     8   1.560
       240.810612      310.641150      426.598352     1     0     0     0     7   1.560
       206.942545      457.856106      365.088740     1     0     0     0     3   1.560
       132.605326      144.248922       87.577994     1     0     0     0     3   1.560
       131.517103      119.302034       61.842399     1     0     0     0     6   1.560
       378.310556      310.625914      196.487928     1     0     0     0     4   1.560
       237.463652      335.365292      266.832243     1     0     0     0     4   1.560
        27.675050      326.292297      162.250852     1     0     0     0     5   1.560
       212.674634      434.163254      456.633621     1     0     0     0     6   1.560
       445.178285      222.757508      385.997410     1     0     0     0     7   1.560
       442.942992      287.159293      229.396117     1     0     0     0     1   1.560
       469.816853      300.877757      233.040675     1     0     0     0     6   1.560
        74.236433      394.747846      120.207505     1     0     0     0     1   1.560
       235.353810      494.013359      306.270130     1     0     0     0     4   1.560
        81.307126      281.473105      303.639705     1     0     0     0     1   1.560
       493.571873      357.615966       12.161667     1     0     0     0     8   1.560
       396.796061      127.171472      418.122273     1     0     0     0     7   1.560
       246.571460      415.774245      347.146564     1     0     0     0     1   1.560
       203.058367       94.792849       46.089665     1     0     0     0     8   1.560
       102.819984      481.781205      478.582294     1     0     0     0     7   1.560
       123.295231      295.148400      490.969563     1     0     0     0     6   1.560
       237.135091      305.688357       64.895744     1     0     0     0     5   1.560
       241.461045      386.125763       13.672529     1     0     0     0     3   1.560
       251.002989      125.625250       92.040679     1     0     0     0     6   1.560
       445.405907      100.605812       98.576169     1     0     0     0     7   1.560
       400.308850       42.410046      494.038653     1     0     0     0     2   1.560
         2.716859      416.036396        4.012516     1     0     0     0     2   1.560
        87.935334      144.223687        0.190058     1     0     0     0     2   1.560
       391.371957      313.980677      219.946688     1     0     0     0     7   1.560
       113.827977      190.033860      474.998500     1     0     0     0     4   1.560
       456.730115      481.313442      303.636455     1     0     0     0     3   1.560
       432.798206      218.804735      166.719476     1     0     0     0     1   1.560
       476.831983      427.791340      256.544536     1     0     0     0     2   1.560
       340.413931      287.728872       17.896090     1     0     0     0     8   1.560
       452.388214      406.067663      427.563717     1     0     0     0     7   1.560
       295.340305      133.368723      383.029411     1     0     0     0     6   1.560
       248.383170      225.028827      360.458305     1     0     0     0     7   1.560
       264.073409      409.770643       59.233817     1     0     0     0     4   1.560
       451.115901      365.988645        7.344158     1     0     0     0     6   1.560
       212.880366      330.359994      281.487422     1     0     0     0     2   1.560
       440.656523      495.917450      144.332263     1     0     0     0     6   1.560
       229.851465      244.954830      194.588512     1     0     0     0     5   1.560
       241.066534      114.949304      191.255224     1     0     0     0     1   1.560
       186.321712      263.648088      196.136584     1     0     0     0     1   1.560
       498.319001       65.491608       86.847151     1     0     0     0     4   1.560
        14.196362      309.911407      130.624993     1     0     0     0     2   1.560
        63.172360      282.283335      243.812261     1     0     0     0     7   1.560
       187.455721      135.347523      184.677418     1     0     0     0     7   1.560
       349.385700      359.229955        3.215708     1     0     0     0     7   1.560
        82.584955       83.265896      445.775744     1     0     0     0     8   1.560
       465.079878      398.466538      364.469608     1     0     0     0     6   1.560
       442.939478      165.296532        4.143408     1     0     0     0     6   1.560
       325.980533        8.291729      187.201526     1     0     0     0     4   1.560
       285.894894      156.109884       39.576953     1     0     0     0     3   1.560
        92.652044      273.231130       55.432770     1     0     0     0     5   1.560
       443.914141      360.000740       87.377576     1     0     0     0     3   1.560
       382.860838       11.341882      102.373290     1     0     0     0     1   1.560
        50.229188      327.477916       51.288545     1     0     0     0     5   1.560
       402.655898      136.759621      470.823298     1     0     0     0     6   1.560
       198.132510      434.037047      471.337984     1     0     0     0     4   1.560
       321.599090      312.746907      311.136020     1     0     0     0     8   1.560
       303.816941      213.013356      165.863713     1     0     0     0     5   1.560
       395.434401      193.277587       19.020857     1     0     0     0     2   1.560
        30.208868      418.696895       97.782950     1     0     0     0     1   1.560
       146.787412       77.527503      293.527488     1     0     0     0     7   1.560
       406.487523      144.352159      269.069168     1     0     0     0     7   1.560
         3.156983      274.662505      304.784345    94     0     0     0     4   7.090
       449.050134       22.354214       87.329707     1     0     0     0     5   1.560
       114.150508       98.252717      286.842772     1     0     0     0     3   1.560
       112.155811      408.433343      364.662563     1     0     0     0     4   1.560
       201.575818      430.168258      451.638884     1     0     0     0     2   1.560
       499.233812      369.778283       20.559987     1     0     0     0     5   1.560
       395.428670       21.380931      209.421728     1     0     0     0     1   1.560
       417.800467      380.576586       13.783588     1     0     0     0     5   1.560
       345.772806      206.857199       67.581880     1     0     0     0     5   1.560
       486.427275      193.743023      339.383918     1     0     0     0     1   1.560
       199.363860       25.746215       30.006927     1     0     0     0     4   1.560
       366.223806      148.154544      274.467981     1     0     0     0     3   1.560
       476.662944      288.474409      179.059704     1     0     0     0     7   1.560
       190.860733      107.446701      170.590780     1     0     0     0     7   1.560
        77.354048      424.829934      245.344430     1     0     0     0     1   1.560
       420.209418      171.173144       57.815767     1     0     0     0     5   1.560
       357.031820      290.856593      177.544556     1     0     0     0     4   1.560
       284.873818       68.969574      270.328946     1     0     0     0     7   1.560
        75.375913      351.742508       77.637242     1     0     0     0     5   1.560
       411.917465      332.275546      473.638972     1     0     0     0     2   1.560
       134.457383      427.656970      271.937774     1     0     0     0     5   1.560
        84.380588      391.630691      433.976298     1     0     0     0     8   1.560
       233.235373      238.405773      200.700054     1     0     0     0     4   1.560
       341.529470      388.943707      193.549150     1     0     0     0     6   1.560
       407.372491      320.120666       48.359455     1     0     0     0     5   1.560
        81.367989      120.634440      198.849301     1     0     0     0     6   1.560
       429.688995      454.846894      307.216853     1     0     0     0     3   1.560
        73.345733      228.776230      205.986758     1     0     0     0     3   1.560
       450.006851      291.453334      285.869809     1     0     0     0     2   1.560
       277.849092      129.614412      474.506436     1     0     0     0     3   1.560
       419.544841      384.562567        0.413366     1     0     0     0     4   1.560
       202.801990      379.947881      229.548700     1     0     0     0     6   1.560
        98.738526       54.706830      169.973724     1     0     0     0     6   1.560
       399.333827       84.346825       23.263018     1     0     0     0     7   1.560
       154.208279      143.990126      158.752687     1     0     0     0     3   1.560
       356.216850      431.394618      378.035703     1     0     0     0     3   1.560
       146.737317      243.561357      469.879123     1     0     0     0     6   1.560
       267.562718      173.743310      283.433586     1     0     0     0     3   1.560