ITEM: TIMESTEP
0
ITEM: NUMBER OF ATOMS
        2193
ITEM: BOX BOUNDS pp pp pp
  0.0000000E+00   500.000000000000     
  0.0000000E+00   500.000000000000     
  0.0000000E+00   500.000000000000     
ITEM: ATOMS x y z f1 f2 f3 f4 orient radius
       100.298986      446.822910      299.368122     1     0     0     0     4   1.560
       161.471813       39.443094      361.040698     1     0     0     0     7   1.560
       107.838141      294.499072       53.896484     1     0     0     0     6   1.560
        36.193977      280.174810      319.805578     1     0     0     0     5   1.560
       482.520987      135.919486      220.049495     1     0     0     0     5   1.560
       414.905718       72.810897      369.916914     1     0     0     0     7   1.560
       215.208964      375.196929      225.179655     1     0     0     0     2   1.560
       497.106770      274.675314       94.523255     1     0     0     0     4   1.560
        72.917118      499.023905      134.888102     1     0     0     0     5   1.560
       211.533746      361.190901      280.158090     1     0     0     0     6   1.560
       420.547973      226.495751      238.130793     1     0     0     0     6   1.560
       135.207947       82.596309      286.775951     1     0     0     0     7   1.560
       265.401110       86.830941       10.982140     1     0     0     0     7   1.560
       263.867185      261.081519      279.008221     1     0     0     0     6   1.560
       406.253822       34.023403       29.748836     1     0     0     0     7   1.560
       250.496004      373.051133       96.327669     1     0     0     0     4   1.560
       475.161470      278.965241      152.977133     1     0     0     0     3   1.560
       438.397244      156.516267       50.801230   103     0     0     0     1   7.310
       308.427151      498.054060      395.520550     1     0     0     0     3   1.560
       456.852413      225.217915       62.632356     1     0     0     0     5   1.560
        22.558179      155.071101      292.129649     1     0     0     0     2   1.560
       449.952771      484.899633       62.274948     1     0     0     0     1   1.560
        64.700229       76.863069      424.597112     1     0     0     0     3   1.560
       301.414038      342.599796      228.950053     1     0     0     0     4   1.560
       148.083300      147.576271       41.180370     1     0     0     0     8   1.560
       484.697381      265.582551      242.359576     1     0     0     0     3   1.560
       148.116697      275.687312       44.140812     1     0     0     0     2   1.560
       240.550611      340.877081      257.556482     1     0     0     0     1   1.560
       386.259212      289.469103      205.833741     1     0     0     0     6   1.560
       325.399737      324.036758      469.966805     1     0     0     0     2   1.560
       171.753940      404.281203      263.926656     1     0     0     0     8   1.560
        64.165838      327.851122      461.748544     1     0     0     0     5   1.560
       384.684764      386.636501      204.418608     1     0     0     0     5   1.560
       313.375379      417.771490      301.168627     1     0     0     0     6   1.560
       205.130513      466.941488       44.355260     1     0     0     0     3   1.560
        14.825379      102.246279      272.534798     1     0     0     0     7   1.560
       182.869703      358.888335      137.716619     1     0     0     0     7   1.560
       474.284126      484.195853      427.244692     1     0     0     0     8   1.560
        33.572279       46.765729      431.925351     1     0     0     0     6   1.560
       305.028895      295.594817      385.674536     1     0     0     0     1   1.560
       235.792295       79.156385      247.811597     1     0     0     0     5   1.560
       329.660225       60.850526      319.833366     1     0     0     0     4   1.560
       211.500484      202.727139      207.488352     1     0     0     0     7   1.560
       110.117263      365.323309      149.664788     1     0     0     0     7   1.560
       318.161957      187.272259      187.217876     1     0     0     0     6   1.560
       107.223174      403.946501      111.654299     1     0     0     0     8   1.560
       221.354020      380.690672      337.457192     1     0     0     0     5   1.560
       369.040830      279.697865      292.677413     1     0     0     0     4   1.560
       105.863544      282.720610       87.451454     1     0     0     0     3   1.560
       250.165621      168.912272      159.651697     1     0     0     0     8   1.560
       395.508372      275.701907      121.636405     1     0     0     0     8   1.560
       413.282716      443.205198       58.294939     1     0     0     0     8   1.560
       211.190177       90.152219       75.377635     1     0     0     0     2   1.560
        37.748500       25.441571       13.252052     1     0     0     0     4   1.560
       148.349927      457.435851       20.955467     1     0     0     0     5   1.560
       194.290443      148.865622      241.939046     1     0     0     0     2   1.560
       205.817787      422.494405      154.299958     1     0     0     0     1   1.560
       416.766821      187.474178      125.817012     1     0     0     0     5   1.560
       314.830110      347.108869      442.141697     1     0     0     0     4   1.560
       297.424107      191.287078      118.723509     1     0     0     0     8   1.560
        71.963556       51.654029      243.641904     1     0     0     0     4   1.560
       336.836622      455.577320      118.281121     1     0     0     0     4   1.560
       308.899602      398.436895      117.193362     1     0     0     0     2   1.560
       103.574735       15.073356      247.240794     1     0     0     0     4   1.560
       172.112045      199.187745      311.235132     1     0     0     0     8   1.560
         5.661428      324.696652      146.618386     1     0     0     0     6   1.560
       265.941350      310.317197      365.666536     1     0     0     0     2   1.560
        45.019470      179.390533       51.943563     1     0     0     0     5   1.560
        35.736021      388.735635      123.221671     1     0     0     0     5   1.560
        30.019065      476.118569      181.371031     1     0     0     0     6   1.560
       396.473855       40.552109       50.917884     1     0     0     0     6   1.560
       156.764325      256.994037      389.197530     1     0     0     0     5   1.560
         8.664443      476.836063      261.567126     1     0     0     0     2   1.560
       188.967117      410.310675      304.530140     1     0     0     0     1   1.560
       391.299024      360.922780      405.892816     1     0     0     0     3   1.560
        99.423730      340.893724      372.348137     1     0     0     0     2   1.560
       251.398870        2.302179      271.193845     1     0     0     0     2   1.560
       175.092675      483.790719      375.792153     1     0     0     0     2   1.560
       388.944284      215.780532      281.507839     1     0     0     0     8   1.560
       335.631649      255.146078      257.722370     1     0     0     0     7   1.560
       359.286829      483.914778      198.597799     1     0     0     0     4   1.560
       317.496892      399.862377      278.834690     1     0     0     0     5   1.560
       255.888246      466.595933      358.475243     1     0     0     0     6   1.560
        79.835890      159.487013      252.880170     1     0     0     0     7   1.560
       113.985369      207.059863      258.294282     1     0     0     0     4   1.560
       352.208994       25.516852      240.432723     1     0     0     0     7   1.560
        94.655193      140.664857      357.556584     1     0     0     0     5   1.560
       117.001309      208.696277       54.877565   349     0     0     0     7  10.980
       199.069633       64.871894      493.019749     1     0     0     0     7   1.560
       256.487930       50.498977      189.805865     1     0     0     0     5   1.560
        30.539575        7.914551      128.483923     1     0     0     0     5   1.560
       469.861699      473.944779      319.911747     1     0     0     0     8   1.560
        10.599243      157.934446      373.991624     1     0     0     0     6   1.560
       493.206325      343.049212       64.704388     1     0     0     0     5   1.560
       263.220841      433.105007      487.889779     1     0     0     0     1   1.560
       442.104783      488.655437      458.688190     1     0     0     0     6   1.560
       273.860954      405.278517      387.078849     1     0     0     0     7   1.560
       263.739556       95.868847      368.218996     1     0     0     0     1   1.560
       200.247548      450.954874      183.274591     1     0     0     0     5   1.560
       219.089097      257.769298      249.964011     1     0     0     0     4   1.560
       149.151166      428.811863       57.353175     1     0     0     0     4   1.560
       235.229286      494.620222       31.358868     1     0     0     0     3   1.560
       220.608791      215.068248       32.269760     1     0     0     0     2   1.560
       208.124987      485.548004      445.619827     1     0     0     0     1   1.560
       113.189206      165.626048      284.370559     1     0     0     0     6   1.560
        53.858858      276.303514      363.496508     1     0     0     0     5   1.560
       364.235409      119.667692      107.838389     1     0     0     0     4   1.560
       198.632475      334.776457      287.226626     1     0     0     0     5   1.560
        86.431593      298.407948      452.854735     1     0     0     0     6   1.560
       452.775688      391.287816      304.181130     1     0     0     0     7   1.560
       258.875995       37.315195      326.401918     1     0     0     0     5   1.560
       214.137024      317.934590      267.701001     1     0     0     0     3   1.560
       370.680562      136.005255      172.071002     1     0     0     0     7   1.560
       231.858973      195.824052       92.297650     1     0     0     0     3   1.560
       269.786954      207.159685      253.079097     1     0     0     0     6   1.560
       256.219936      372.328466      165.547629     1     0     0     0     6   1.560
        84.657284      264.096006      191.588708     1     0     0     0     6   1.560
       134.811495       19.348822      168.441672     1     0     0     0     2   1.560
        63.339403      324.827864      496.972710     1     0     0     0     5   1.560
       131.233642      367.288755      495.281206     1     0     0     0     2   1.560
        36.214540        4.180144      301.495685     1     0     0     0     6   1.560
       312.633796       89.733365      179.539959     1     0     0     0     6   1.560
       272.335394      177.908165      105.629479     1     0     0     0     7   1.560
       258.476894      276.670841      162.748852     1     0     0     0     6   1.560
       324.736272      468.013901      491.595862     1     0     0     0     6   1.560
       230.192484      119.601202      378.258384     1     0     0     0     7   1.560
        49.723332       17.914562      274.673793     1     0     0     0     8   1.560
       383.856710      414.594908      127.941556     1     0     0     0     3   1.560
       497.220410      212.481968      289.954615     1     0     0     0     5   1.560
       436.581468      396.043806      244.843184     1     0     0     0     3   1.560
       243.294540      193.300678      432.182587     1     0     0     0     4   1.560
       399.761156      260.077683      399.245935     1     0     0     0     7   1.560
       446.538973       41.750706      444.693667     1     0     0     0     7   1.560
       328.297614       87.970716      490.683774     1     0     0     0     4   1.560
       483.161517      290.311777      480.085616     1     0     0     0     6   1.560
       260.077798      381.849796      132.698868     1     0     0     0     5   1.560
       257.258986      392.373889      179.911098     1     0     0     0     5   1.560
        71.159840      483.543742      149.045543     1     0     0     0     4   1.560
        50.482862      279.515265      276.113130     1     0     0     0     5   1.560
       402.589344      116.458709       14.157478     1     0     0     0     3   1.560
         4.438657      303.769124       45.516029     1     0     0     0     4   1.560
       281.791240      415.616364      382.882237     1     0     0     0     6   1.560
       267.620822       92.285767      193.704404     1     0     0     0     8   1.560
        83.461125      227.931842        5.530203     1     0     0     0     8   1.560
       140.761406      340.617219       48.538461     1     0     0     0     1   1.560
       331.628063      401.022034      331.327509     1     0     0     0     3   1.560
       149.167138      169.942771       16.837160     1     0     0     0     1   1.560
       293.888689      479.042712      487.265465     1     0     0     0     8   1.560
       144.005883      130.796464      207.964624     1     0     0     0     4   1.560
       445.874361      326.026098      284.621794     1     0     0     0     1   1.560
       400.841560      155.186863      250.985217     1     0     0     0     8   1.560
        61.123273       13.247977       55.354839     1     0     0     0     7   1.560
       249.750508      262.130013      334.487115     1     0     0     0     5   1.560
       182.612218      128.182865      432.637034     1     0     0     0     3   1.560
       192.440613        1.836316      475.773836     1     0     0     0     3   1.560
       268.398354       23.440244      351.303036     1     0     0     0     5   1.560
       124.916643      475.279077      212.094709     1     0     0     0     6   1.560
        15.736491        7.646257      405.324785     1     0     0     0     1   1.560
       325.462890      398.334721      499.990074     1     0     0     0     1   1.560
       212.640279      395.287287      484.400581     1     0     0     0     3   1.560
       335.589510       57.673243      352.215555     1     0     0     0     2   1.560
        50.550449      353.561995      300.596790     1     0     0     0     6   1.560
       312.342493      150.506975       68.251691     1     0     0     0     3   1.560
       236.160864      357.158247      294.364353     1     0     0     0     6   1.560
        55.733281      449.544499      144.755914     1     0     0     0     7   1.560
        41.482736      318.778562       60.102345     1     0     0     0     1   1.560
       233.021659      249.839129      484.688832     1     0     0     0     7   1.560
       150.103741      365.520964       46.129065     1     0     0     0     4   1.560
       399.090919        0.743947       16.656081     1     0     0     0     2   1.560
       107.064165      468.159232       30.572647     1     0     0     0     1   1.560
        34.537743      197.634706      450.804247     1     0     0     0     1   1.560
        98.666711       32.989938      426.692326     1     0     0     0     3   1.560
       372.643701        4.935419      192.483910     1     0     0     0     2   1.560
       106.168846      323.776816      380.556669     1     0     0     0     7   1.560
       430.961278      443.740715      199.821425     1     0     0     0     7   1.560
       316.750645      260.067692      327.541418     1     0     0     0     1   1.560
       463.039099      208.716287      201.742723     1     0     0     0     3   1.560
       230.001649      456.503267      256.424424     1     0     0     0     7   1.560
       115.626961        4.617243      407.080706     1     0     0     0     6   1.560
        63.504900      458.022907       57.251133     1     0     0     0     6   1.560
       336.049732      353.192826      443.433922     1     0     0     0     2   1.560
       370.448205      248.990116      156.963986     1     0     0     0     8   1.560
        50.348301       10.532390      497.732227     1     0     0     0     5   1.560
       473.275918      322.888830      364.100792     1     0     0     0     2   1.560
        89.348708      194.590912      473.291153     1     0     0     0     4   1.560
       414.695434      177.472740      337.493039     1     0     0     0     6   1.560
       356.986998      377.944012      264.930942     1     0     0     0     8   1.560
        48.977394      352.481921      411.989408     1     0     0     0     2   1.560
        89.683540       64.068275      280.154066     1     0     0     0     7   1.560
       329.258987      259.657401      159.836959     1     0     0     0     2   1.560
       305.935978      222.014806      121.899994   363     0     0     0     4  11.130
       235.592390      376.990854      336.431044     1     0     0     0     5   1.560
       386.857575       90.031397      381.340258     1     0     0     0     1   1.560
       355.299459       24.405068      396.244642     1     0     0     0     6   1.560
       356.940275      335.493968      150.939673     1     0     0     0     4   1.560
        55.260095      450.918262       24.655366     1     0     0     0     3   1.560
        44.787560       60.631645      253.371535     1     0     0     0     7   1.560
       425.695377      142.930203      215.953870     1     0     0     0     4   1.560
       130.037010      280.920759      345.867334     1     0     0     0     5   1.560
       192.205322      302.365768      408.067939     1     0     0     0     8   1.560
       423.523727      178.789379       38.489860     1     0     0     0     3   1.560
        32.687964      219.358445       53.238207     1     0     0     0     6   1.560
       161.017258      122.144236      318.227699     1     0     0     0     3   1.560
       154.733393       43.830648      488.768665     1     0     0     0     2   1.560
       129.538089      350.708182      209.200670     1     0     0     0     6   1.560
       191.558880      203.373473      264.837940     1     0     0     0     4   1.560
       436.769948       60.519702      416.029954     1     0     0     0     8   1.560
       308.471305      482.146033      346.970114     1     0     0     0     8   1.560
       375.188394      420.401471      364.109696     1     0     0     0     1   1.560
       202.458696      313.096137      455.184166     1     0     0     0     7   1.560
       344.992913      456.063152      397.621784     1     0     0     0     5   1.560
        39.544447       47.128058      226.087090     1     0     0     0     4   1.560
        64.001949      224.729987       64.643445     1     0     0     0     4   1.560
       370.229447      179.575582       68.558554     1     0     0     0     8   1.560
       238.771666      454.283388      410.418533     1     0     0     0     6   1.560
       110.853932       19.504201      411.824002     1     0     0     0     2   1.560
       256.507033      482.558646      199.128377     1     0     0     0     5   1.560
        90.595481        7.090424       80.061441     1     0     0     0     8   1.560
       458.935595       69.930449      496.576013     1     0     0     0     2   1.560
       419.027834       45.260600      138.617047     1     0     0     0     5   1.560
       140.243242      167.079018       62.152563     1     0     0     0     8   1.560
       253.127214      113.457627      299.903423     1     0     0     0     4   1.560
       328.356157      382.672812      267.537908     1     0     0     0     6   1.560
       211.532655      272.787691      194.276914     1     0     0     0     1   1.560
       334.990791      365.864373      288.375440     1     0     0     0     5   1.560
        62.600103      325.544122      320.399107     1     0     0     0     3   1.560
       230.987618      134.980687      293.105725     1     0     0     0     8   1.560
       216.313312       84.473180      260.896606     1     0     0     0     8   1.560
       200.603210       44.405907      354.730224     1     0     0     0     8   1.560
        90.199335      457.411460      112.568943     1     0     0     0     1   1.560
       365.846145      343.630269      253.876927     1     0     0     0     7   1.560
        69.575736      170.012090       93.054775     1     0     0     0     6   1.560
        87.671380      291.112024      401.759046     1     0     0     0     3   1.560
       227.668661      493.844946       95.636499     1     0     0     0     3   1.560
       375.094493      266.010667      291.527587     1     0     0     0     8   1.560
       344.157069       90.749866      294.644761     1     0     0     0     3   1.560
       330.541670      274.651874      442.015388     1     0     0     0     4   1.560
       168.227945      267.483505      231.191871     1     0     0     0     5   1.560
       406.264861      329.140109      289.948942   198     0     0     0     8   9.090
        30.727171      233.656394       88.520917     1     0     0     0     1   1.560
        71.439227      133.600379      398.034128     1     0     0     0     5   1.560
       419.099033       57.897483      471.234725     1     0     0     0     7   1.560
       329.118568      493.351406      359.430215     1     0     0     0     3   1.560
       409.092506       96.756967      330.128319     1     0     0     0     1   1.560
       223.556772      262.669268       68.057212     1     0     0     0     8   1.560
        57.181608      367.634607      302.366133     1     0     0     0     5   1.560
       465.422623      296.230370      409.782883     1     0     0     0     5   1.560
       213.070019      123.889580      477.481217     1     0     0     0     6   1.560
        26.116652      294.233116      252.155613     1     0     0     0     2   1.560
       320.303444      378.006733      394.352637     1     0     0     0     3   1.560
       301.121526      388.950274      207.788616     1     0     0     0     4   1.560
       462.983717      106.678235       84.007553     1     0     0     0     5   1.560
        55.618734      294.027581      109.097301     1     0     0     0     4   1.560
        91.187469       62.221296        4.378603     1     0     0     0     5   1.560
       130.746341       88.626265      371.154217     1     0     0     0     1   1.560
       247.415782      367.281286      263.063400     1     0     0     0     7   1.560
       403.362082      250.403677      291.308829     1     0     0     0     2   1.560
       479.693537      335.611042      101.257158     1     0     0     0     5   1.560
        63.855750      196.084460       41.358954     1     0     0     0     5   1.560
       301.838632      315.030542      322.663608     1     0     0     0     8   1.560
         1.797417      488.388164      495.931401     1     0     0     0     4   1.560
       338.861247      191.821268      252.387930     1     0     0     0     8   1.560
       250.979826       57.633628      306.809284     1     0     0     0     2   1.560
       304.518510      139.417186      399.151234     1     0     0     0     6   1.560
       239.412187      102.967385      364.017724   283     0     0     0     8  10.240
       499.501373       10.971299       45.349253     1     0     0     0     8   1.560
       284.082181       91.784590      147.939841     1     0     0     0     1   1.560
       212.243458       52.663306      398.674359     1     0     0     0     8   1.560
       489.754515      154.752423      370.847496     1     0     0     0     7   1.560
       156.489035      422.592902      251.944841     1     0     0     0     2   1.560
        24.833403      271.323235       71.971971     1     0     0     0     8   1.560
        46.824940      271.465939      339.387801     1     0     0     0     8   1.560
       363.860364      361.090590      177.939670     1     0     0     0     4   1.560
       315.503565      368.871958      177.675636     1     0     0     0     6   1.560
       120.097488      366.895139      222.696408     1     0     0     0     2   1.560
        76.893478      365.795260      487.450789     1     0     0     0     4   1.560
       346.525695      383.151703      462.848536     1     0     0     0     3   1.560
       124.610125      280.423500       84.539168     1     0     0     0     8   1.560
       494.957637      486.577364       33.168942     1     0     0     0     5   1.560
       124.786127       25.638484       49.317634     1     0     0     0     2   1.560
       256.407640      158.808195      278.709859     1     0     0     0     5   1.560
       405.907707       41.596473      235.440687     1     0     0     0     4   1.560
       456.089823      435.903559       33.658263     1     0     0     0     2   1.560
       128.935512       62.469336      339.343022     1     0     0     0     3   1.560
       266.181818      413.813900      477.316848     1     0     0     0     5   1.560
       220.174133      265.772751      383.510488     1     0     0     0     5   1.560
       469.822466      146.435472      242.587164     1     0     0     0     8   1.560
       269.884760      355.052774      148.612355     1     0     0     0     3   1.560
       274.004413      295.090005      486.784486     1     0     0     0     5   1.560
       331.477341      284.878941       29.125614     1     0     0     0     1   1.560
        91.899136      105.711917      170.857784     1     0     0     0     8   1.560
       409.031351      123.760783      377.202063     1     0     0     0     7   1.560
         7.594108      233.321707      209.160200     1     0     0     0     3   1.560
       250.848135      359.888650      334.895726     1     0     0     0     7   1.560
       437.625162      289.769456      129.193326     1     0     0     0     3   1.560
       333.856303      148.362139       36.681719     1     0     0     0     2   1.560
        88.394884      409.658446      435.157055     1     0     0     0     8   1.560
       439.283559      410.022786      152.336996     1     0     0     0     7   1.560
       326.034855      144.770131      139.708643     1     0     0     0     8   1.560
       436.013730       58.333854      215.816770     1     0     0     0     1   1.560
       429.390784       63.938611      321.302745     1     0     0     0     2   1.560
        32.136579      256.945062      282.800467     1     0     0     0     7   1.560
       125.344758      313.797644      431.534615     1     0     0     0     3   1.560
       422.906560      286.210984      375.637290     1     0     0     0     2   1.560
        25.689208      488.355347       91.662448     1     0     0     0     2   1.560
       105.605891      136.286066      253.270978     1     0     0     0     2   1.560
       235.309891      104.418746      418.114699     1     0     0     0     4   1.560
       414.581367      474.400289      241.144682     1     0     0     0     3   1.560
       465.740448       50.396015       59.769602     1     0     0     0     6   1.560
       127.491077      122.738521      426.130901     1     0     0     0     1   1.560
       251.330679      266.284461      420.214934     1     0     0     0     7   1.560
        17.853143      200.364296      183.469945     1     0     0     0     7   1.560
        41.767835      161.182642      298.678706     1     0     0     0     4   1.560
       231.691763      401.736804      386.650773     1     0     0     0     5   1.560
        83.304837      401.380227      299.990676     1     0     0     0     7   1.560
        14.054296      442.024779      175.257349     1     0     0     0     5   1.560
       374.292435      242.214113      468.458135     1     0     0     0     8   1.560
       466.367625      100.566694       65.235413     1     0     0     0     6   1.560
       234.390957      102.689106      179.439259     1     0     0     0     3   1.560
       296.031982      380.798586       10.769678     1     0     0     0     8   1.560
        43.981966      118.220705      470.731772     1     0     0     0     3   1.560
        24.476102       21.280630      186.645069     1     0     0     0     3   1.560
       261.523316      365.870032      397.006823     1     0     0     0     1   1.560
       287.948374      257.125496       38.766320     1     0     0     0     1   1.560
       256.772004      488.368332       29.029329     1     0     0     0     3   1.560
       448.518699      436.731938       34.785160     1     0     0     0     2   1.560
       144.600795      228.580191      120.321943     1     0     0     0     3   1.560
       292.320188      335.433250      225.585330     1     0     0     0     8   1.560
       174.877634      122.558921      336.415526     1     0     0     0     6   1.560
       386.770058      365.889262      414.024448     1     0     0     0     4   1.560
       474.913124       87.666158       42.401461     1     0     0     0     6   1.560
       433.585432      178.965530      240.149972     1     0     0     0     2   1.560
         9.644846      307.997518      174.135113     1     0     0     0     8   1.560
        28.972114      334.247226       67.804329     1     0     0     0     8   1.560
       340.301357      334.125080      179.079365     1     0     0     0     1   1.560
       212.267818      327.521859       22.372915     1     0     0     0     8   1.560
       258.446108      145.417843      452.971126     1     0     0     0     1   1.560
       437.871172       60.843875      442.529620     1     0     0     0     5   1.560