ITEM: TIMESTEP
0
ITEM: NUMBER OF ATOMS
        2601
ITEM: BOX BOUNDS pp pp pp
  0.0000000E+00   500.000000000000     
  0.0000000E+00   500.000000000000     
  0.0000000E+00   500.000000000000     
ITEM: ATOMS x y z nV nH f3 f4 orient
       370.435181      439.853684       49.615885     1     0     0     0     7
       468.274224      103.935061      235.460237     1     0     0     0     6
        59.064496      298.423247      128.195516     1     0     0     0     4
       322.063678        5.969596      416.039622     1     0     0     0     3
       484.826189      269.680394      258.574949     1     0     0     0     4
       368.116344       39.522505      125.274376     1     0     0     0     7
       205.972089      284.114308      199.691118     1     0     0     0     6
        81.766289      185.902009      413.860224     1     0     0     0     6
       303.833748      208.573146      455.634515     1     0     0     0     4
       484.354870      137.628284      333.268430     1     0     0     0     4
       463.133757        1.387197        1.445637     1     0     0     0     1
        60.698256       13.162967      165.741373     1     0     0     0     3
        47.620567      467.211796      136.389197     1     0     0     0     3
         7.887581       23.891712       65.055823     1     0     0     0     3
       312.446217      242.607692      156.438373     1     0     0     0     7
        47.417660      465.187175      169.051253     1     0     0     0     7
       406.869742      223.232314      394.547878     1     0     0     0     6
       382.389443       94.648730       50.316148     1     0     0     0     5
        34.763664      443.876118      255.666990     1     0     0     0     2
       346.901375      279.353390      412.748546     1     0     0     0     3
       437.302515       43.327443      237.475675     1     0     0     0     5
       111.625638      247.802889       91.847969     1     0     0     0     8
        20.849465      429.516357       41.472742     1     0     0     0     5
       126.944472      467.414000      148.315812     1     0     0     0     6
       390.687250      213.940126      453.320006     1     0     0     0     6
       331.838799      216.983730        4.550664     1     0     0     0     7
       380.563230       30.371062       59.747448     1     0     0     0     3
       163.113555       12.305643      100.209172     1     0     0     0     6
       287.381231      131.175786      144.015166     1     0     0     0     6
       176.040135      430.589122       85.357744     1     0     0     0     3
       295.359172      233.170520      279.740078     1     0     0     0     3
       356.558599      198.695822      453.662878     1     0     0     0     1
       426.830058      304.929786       38.461977     1     0     0     0     3
       391.448759      236.797432      483.639924     1     0     0     0     6
        85.725464      410.849998      229.311285     1     0     0     0     1
       186.057045       50.475823      366.412274     1     0     0     0     5
        73.373920      259.585283      440.049464     1     0     0     0     2
       182.381301      303.562466      118.731114     1     0     0     0     5
       291.715261      401.515674      204.238699     1     0     0     0     1
       178.669158      312.426122       32.582979     1     0     0     0     3
        46.386707      316.205901      397.337549     1     0     0     0     3
       495.356121      281.816535      163.098819     1     0     0     0     5
       190.540098      202.494948       96.924901     1     0     0     0     7
        35.045380      443.002089       21.137823     1     0     0     0     8
       473.605962      450.450313      166.597579     1     0     0     0     8
       122.957580      111.715571      124.218280     1     0     0     0     7
       398.087701      175.595540      115.021541     1     0     0     0     2
       135.828123       21.573580      273.276840     1     0     0     0     8
       198.283495        5.184297      342.689407     1     0     0     0     8
       318.214862      343.000523      491.149023     1     0     0     0     5
        64.471366       69.100797      465.884598     1     0     0     0     3
       436.338039      397.769430      297.556088   275     0     0     0     1
        77.330869       39.025450      358.716739     1     0     0     0     5
        15.179452      359.318927       67.443075     1     0     0     0     7
       460.621754      132.503985      182.147480     1     0     0     0     8
       345.043593       17.003427      316.621129     1     0     0     0     4
       344.234525      422.669140      164.199235     1     0     0     0     2
       312.267319      112.734296       20.941523     1     0     0     0     5
       173.472149      107.896635       36.187538     1     0     0     0     5
       287.566074      207.180636      113.270997     1     0     0     0     8
        85.740488      239.174549       76.969833     1     0     0     0     1
       250.999622      290.117955      217.813469     1     0     0     0     2
       251.028949      387.548362      164.096604     1     0     0     0     6
       418.064019      499.552842      420.607397     1     0     0     0     6
       395.892824      251.775955       82.043604     1     0     0     0     1
       298.319592       42.271473      147.856997   161     0     0     0     3
       216.907863      153.069999      244.463021     1     0     0     0     6
        51.386491      416.594453       99.177566     1     0     0     0     8
       394.543700      389.351216      391.638824     1     0     0     0     3
       483.691002      441.713105      384.172137     1     0     0     0     5
       483.077226      447.224886      195.821448     1     0     0     0     3
       205.029538      441.607871       57.955152     1     0     0     0     1
        17.816840      322.565423      424.486643     1     0     0     0     1
       317.814172      418.823496      236.455711     1     0     0     0     1
       249.826160       99.184219      129.620994     1     0     0     0     8
       318.320565      326.320746      485.894510     1     0     0     0     8
       194.416476      408.616274      125.842374     1     0     0     0     3
       493.362744      182.881148      435.083590     1     0     0     0     1
       186.122745      332.104954      119.876796     1     0     0     0     2
       419.833055      276.486248      416.471569     1     0     0     0     8
        18.828889       72.105088      239.130181     1     0     0     0     1
       481.033985      123.855852      219.209678     1     0     0     0     1
        12.550412       33.712464      417.714391     1     0     0     0     2
       331.292914      176.327517      475.956026     1     0     0     0     5
       252.551233       48.920488      412.141547     1     0     0     0     6
       196.787885      390.399978      245.889727     1     0     0     0     5
       171.078402      266.240389      113.384694     1     0     0     0     4
       244.395659      420.339005      245.794448     1     0     0     0     4
       170.855779      274.060114      403.058513     1     0     0     0     8
       430.001891      299.996571      134.798149     1     0     0     0     6
       360.676080      197.882334       43.687687     1     0     0     0     1
       388.969888      387.812572      455.603714     1     0     0     0     7
        41.981015      184.828681      176.892148     1     0     0     0     5
       161.568659      189.857430      314.483389     1     0     0     0     2
        10.403970      113.002971      266.527606     1     0     0     0     2
       351.407178      269.402697      351.350823     1     0     0     0     7
       231.539837      202.778789       95.081544     1     0     0     0     7
       190.586011       55.004789      396.699954     1     0     0     0     6
       457.744199      230.229510      249.014911     1     0     0     0     3
       267.179680       17.508544      280.677847     1     0     0     0     3
       341.875327      373.143628       83.554083     1     0     0     0     2
       463.173327      342.514036      155.023278     1     0     0     0     4
       154.793845      365.984674      332.595503     1     0     0     0     5
       125.998202      240.087063      389.833467     1     0     0     0     8
        38.971860      451.792843      392.532551     1     0     0     0     7
       106.065686       61.935697      457.180078     1     0     0     0     5
       422.158954       76.707340      165.872599     1     0     0     0     1
       316.485197      478.375840      445.133484     1     0     0     0     8
        57.648196      255.273699      366.773448     1     0     0     0     3
       457.086570      357.060216      205.267833     1     0     0     0     8
       197.164612      193.542960      483.035534     1     0     0     0     5
        49.428983      499.261415      257.854934     1     0     0     0     6
       216.342077      341.714758      273.222421     1     0     0     0     1
       331.059663      111.173822       32.173994     1     0     0     0     7
       280.000922      228.541781      166.316483     1     0     0     0     1
       232.663603      401.635167      496.288887     1     0     0     0     5
       423.014094      267.958637      198.713956     1     0     0     0     5
       466.138056      155.321606      302.437195     1     0     0     0     5
       299.885447      101.218718      330.165563     1     0     0     0     5
       391.173253      327.729029        6.655958     1     0     0     0     4
       249.552858      480.332198      403.100191     1     0     0     0     6
       450.655496      246.795490      379.164695     1     0     0     0     2
       451.300465       29.651933       69.001689     1     0     0     0     4
        77.725940      459.486188      289.002844     1     0     0     0     8
       404.624629       99.439778      301.160064     1     0     0     0     8
       482.659299      297.212168      338.851368     1     0     0     0     5
       188.006817      146.957853        7.537829     1     0     0     0     1
       487.983670      433.159155      464.990009     1     0     0     0     4
       404.774722       53.543859      203.244880     1     0     0     0     7
       451.728142      426.141583      103.497281     1     0     0     0     5
       215.523372      336.747847      446.023363     1     0     0     0     1
       426.348524      368.821531       63.295864     1     0     0     0     5
       465.620596      343.090892      267.983155     1     0     0     0     2
       215.012977       83.575867      496.315765     1     0     0     0     6
       164.052277      398.578192       60.415581     1     0     0     0     6
       367.880529      117.677875      229.975827     1     0     0     0     7
       340.278261      167.180350      118.742426     1     0     0     0     5
       277.220475      370.131332       57.201188     1     0     0     0     2
       229.091646      140.586627      389.701768     1     0     0     0     7
       114.021834       50.540504      142.094012     1     0     0     0     7
       129.174937      461.933959      148.729072     1     0     0     0     2
       375.369502       53.903477      478.897726     1     0     0     0     3
       350.163528      213.453069       81.672421     1     0     0     0     1
       118.320041      248.332097      375.722622     1     0     0     0     5
       467.089891      344.254425      412.008753   326     0     0     0     6
       273.922968      400.588334       77.661835     1     0     0     0     1
       106.829441      374.058857      478.222438     1     0     0     0     8
       276.331162      450.917648      491.894513     1     0     0     0     8
       283.411362      412.802621      126.370942     1     0     0     0     8
        94.202140      367.846055      362.381052     1     0     0     0     1
       412.114812      263.424427      409.579331     1     0     0     0     8
       469.202003      101.115219      137.733437     1     0     0     0     8
       217.473998      352.479419      186.224855     1     0     0     0     1
       143.036268      163.657619       49.916412     1     0     0     0     2
       227.270317      288.611461       72.818546     1     0     0     0     2
       146.711213      153.393706      101.220005     1     0     0     0     6
         0.218041       39.987415      176.232647     1     0     0     0     1
       194.135813      302.844100       44.578123     1     0     0     0     4
       264.675633      301.535688       87.911218     1     0     0     0     4
       132.621840       89.155684      407.224838     1     0     0     0     7
       435.619387      104.078543       58.471095     1     0     0     0     6
       376.572546       84.796667      247.705532     1     0     0     0     2
       292.224367      262.816948      298.858392     1     0     0     0     6
       139.591930      195.501270      406.698034     1     0     0     0     4
       353.530180      341.788122       45.823722     1     0     0     0     8
       166.223416      174.767568        5.819543     1     0     0     0     5
       336.023890       20.450648      480.261543     1     0     0     0     1
       295.934094      265.660585      211.913282     1     0     0     0     4
       455.790262      322.168154       38.366376     1     0     0     0     5
       216.849869      293.070885      302.450511     1     0     0     0     6
       247.288388      286.331228      409.964514     1     0     0     0     8
       371.841399      428.561430      355.486332     1     0     0     0     1
       266.800607        3.354942       23.921214     1     0     0     0     5
       215.485835      125.322355      485.037950     1     0     0     0     6
       252.180664       44.113704      337.754129     1     0     0     0     4
       462.593221       98.505991      107.569334     1     0     0     0     4
        67.546914      227.533476       45.223219     1     0     0     0     5
       315.794862      254.278080      264.459043     1     0     0     0     8
       184.084226      366.858961      321.583643     1     0     0     0     3
       113.172320      179.392984      424.762790     1     0     0     0     5
       459.989919      261.482212      141.541029     1     0     0     0     3
        79.062088      241.928920      329.974888     1     0     0     0     6
        90.250867      290.878155      207.638756     1     0     0     0     1
       346.981122      313.083017       48.770113     1     0     0     0     8
        27.318813      210.509401      425.047560     1     0     0     0     8
       336.347384      309.718799       42.177562     1     0     0     0     7
       101.360488      214.357642      461.968243     1     0     0     0     1
       458.675639      456.919029      163.050544     1     0     0     0     2
       117.273053      154.073016      411.764407     1     0     0     0     3
       410.592825      248.341345      114.323598     1     0     0     0     8
        73.276336      159.459903      468.867659     1     0     0     0     3
       241.955243       86.717944      367.636132     1     0     0     0     1
       417.610286       89.195686      109.645152     1     0     0     0     4
        76.830044      239.490493      454.364652     1     0     0     0     3
       251.944046      363.146545      105.970752     1     0     0     0     4
       240.091272       65.625707      109.066885     1     0     0     0     5
       320.692504      144.907444      472.065061     1     0     0     0     7
       495.146701       76.519938      205.400970     1     0     0     0     7
       471.651633      256.570384      120.642498     1     0     0     0     4
       488.605141      224.752228      283.481810     1     0     0     0     7
       366.346823      307.396760      479.663828     1     0     0     0     6
        42.264569      221.982985      460.984298     1     0     0     0     3
         2.019330      213.826959      367.249869     1     0     0     0     3
        61.151880      349.241665      190.251920     1     0     0     0     7
       145.063550      122.632772       25.445385     1     0     0     0     2
       153.979572       25.668239       86.677961     1     0     0     0     8
       342.122073       12.081264       88.456865     1     0     0     0     5
        94.411980      460.143948       78.487775     1     0     0     0     8
       255.297923      361.418677      347.226994     1     0     0     0     5
       330.253433      242.100709       12.535539     1     0     0     0     2
       160.095897       98.684883      401.927233     1     0     0     0     5
       460.530109      461.418604      415.262241     1     0     0     0     6
       423.697044      223.274138      422.404155     1     0     0     0     8
       338.507685      289.316635      307.758474     1     0     0     0     7
       297.535619       74.032233      350.553683     1     0     0     0     5
       350.273654      365.065505      211.211641     1     0     0     0     1
       400.680354      437.687432      438.199169     1     0     0     0     3
       175.815801      307.256609      219.962774     1     0     0     0     2
        93.605091       70.668107      306.582612     1     0     0     0     6
       495.612884       31.911237      491.001964     1     0     0     0     8
       477.335672      123.361592      146.981424     1     0     0     0     5
       294.646717       74.228129       49.254551     1     0     0     0     1
       176.433264      123.524103      445.562427     1     0     0     0     8
       308.486748      290.898129      379.774728     1     0     0     0     5
       202.079819      432.837283      391.190348     1     0     0     0     5
       288.249859       95.901028      199.186202     1     0     0     0     2
       487.657416      331.798510      486.722076     1     0     0     0     5
       101.979183      465.216396      443.423538     1     0     0     0     3
       153.426519      374.159475      361.973281     1     0     0     0     8
       168.551187      333.992227       23.437591     1     0     0     0     4
        63.783150      497.978176      399.819050     1     0     0     0     4
       104.563301      310.236746      468.828786     1     0     0     0     2
       323.698790       13.687776      149.229992     1     0     0     0     8
       414.573164      211.589741      121.534869     1     0     0     0     7
       345.792507      218.920429      489.251499     1     0     0     0     7
       458.573052      291.685222      400.798684     1     0     0     0     6
       260.222105      338.958689      384.163519     1     0     0     0     8
       316.976774      424.895653      161.591282     1     0     0     0     4
       248.554634      413.686659      119.342510     1     0     0     0     8
       353.319520      286.264365      143.449760     1     0     0     0     4
       171.573212      492.242621      213.547936     1     0     0     0     2
       164.915114      261.537335      242.780407     1     0     0     0     3
       289.280149      157.643705      284.097081     1     0     0     0     5
       152.945635      307.029167       65.914823     1     0     0     0     1
       486.880681      327.790428       44.336337     1     0     0     0     2
       126.631484      283.327731      332.646222     1     0     0     0     7
       276.056898       57.386178      100.237832     1     0     0     0     2
       122.981735      436.878283      265.622953     1     0     0     0     1
       135.483134      216.228391        7.031913     1     0     0     0     1
       479.863309      314.811687       90.924187     1     0     0     0     7
        33.407706      240.262315      395.374635     1     0     0     0     4
       321.198851       75.249994      102.917309     1     0     0     0     2
       216.332913      455.972884      336.678974     1     0     0     0     7
       259.626225      136.640313      204.242787     1     0     0     0     7
       293.183333      301.447835       38.630858     1     0     0     0     7
        54.195152      249.180764       50.453774     1     0     0     0     3
       215.719464       50.633009      431.303773     1     0     0     0     3
       403.373047      357.083692      209.927435     1     0     0     0     4
       427.849674       44.467567      371.261474     1     0     0     0     4
       231.992295      257.242248      329.900521     1     0     0     0     4
       436.158540      386.003215      257.607825     1     0     0     0     1
       177.390069      479.955325      463.679088     1     0     0     0     5
        55.649255      154.493420      476.561775     1     0     0     0     3
       381.839890      170.909106      125.226657     1     0     0     0     1
       192.660509      495.870301      415.628340     1     0     0     0     8
       402.500983      281.672816       49.032478     1     0     0     0     2
       315.537640       68.361311       80.172451     1     0     0     0     5
       451.219842      186.709440      419.195140     1     0     0     0     7
        11.072071      463.230917       11.677082     1     0     0     0     8
       263.179521       40.643726      482.834957     1     0     0     0     8
       424.170318      177.266431       66.233167     1     0     0     0     2
       103.596537      373.542328      289.196527     1     0     0     0     3
       200.706643      112.708692       46.358446     1     0     0     0     2
       223.657923      314.014660      442.305858     1     0     0     0     8
       214.483475      338.362857      340.842744     1     0     0     0     7
       236.158664      381.828296      203.268307     1     0     0     0     8
       473.412222      359.492669      327.602050     1     0     0     0     1
       334.496506      277.217197      357.153424     1     0     0     0     7
       256.847242       60.332570      100.019074     1     0     0     0     6
       375.530733      342.721175      161.202972     1     0     0     0     6
        47.594477      417.595264       87.557665     1     0     0     0     2
       189.770817      375.381474       86.053766     1     0     0     0     5
       247.866782      317.820471      335.237248     1     0     0     0     3
       248.659343      321.828312       98.015704     1     0     0     0     4
       300.386568      432.424279      164.024988     1     0     0     0     1
        10.074295      151.918948       42.386512     1     0     0     0     7
       349.072213      133.740034      482.516723     1     0     0     0     3
       404.498508      100.488310      241.272609     1     0     0     0     2
       220.695513      230.557234      385.509398     1     0     0     0     7
       421.629961       86.785938      458.784349     1     0     0     0     8
       447.615227       94.850551      343.276000     1     0     0     0     4
       221.207257      384.093630      153.737360     1     0     0     0     1
       262.947443      225.591514      198.956412     1     0     0     0     3
       337.233463      222.695345      223.758994     1     0     0     0     1
       369.807709      148.996737      421.379602     1     0     0     0     5
       486.497589      308.274006      460.314051     1     0     0     0     7
       458.191523      426.409643      183.482557     1     0     0     0     3
       217.997863       50.537481      372.602614     1     0     0     0     6
       426.243087      331.374569      373.344834     1     0     0     0     1
        87.204849      154.078356      188.296110     1     0     0     0     6
       372.586307       30.755013       69.632953     1     0     0     0     4
       402.949949      227.381705      152.787629     1     0     0     0     6
       244.572161      172.710137      381.729425     1     0     0     0     7
       173.794159      274.971090      102.107861     1     0     0     0     2
       119.449559      175.373005       80.701223     1     0     0     0     5
       128.607167      485.912783       24.510108     1     0     0     0     5
       172.041671      374.018386      173.538377     1     0     0     0     3
       311.071979       62.185787      472.732058     1     0     0     0     6
        58.371672      156.566467      106.322643     1     0     0     0     5
       486.725315      356.168808      447.467571     1     0     0     0     6
       431.005287      416.647427      451.462274     1     0     0     0     3
       145.592411      135.082131      474.876527     1     0     0     0     3
       431.706127       57.781170      217.224151     1     0     0     0     7
       167.761201       81.870670      424.899540     1     0     0     0     7
       235.238088      388.018529       67.530928     1     0     0     0     3
       391.398689      378.758613      184.816299     1     0     0     0     4
        34.970192      380.566272      140.003315     1     0     0     0     4
       192.989057      461.215454      467.519188     1     0     0     0     7
       314.516803      317.487880       49.973218     1     0     0     0     3
       276.545176      467.684565      457.611115     1     0     0     0     7
       242.991581      379.581254      135.976789     1     0     0     0     1
       342.056268      455.000449      219.342744     1     0     0     0     6
       180.374357       24.521715      124.592245     1     0     0     0     5
       305.923465        9.304444      285.533791     1     0     0     0     7
        13.670301      416.580162      151.451016     1     0     0     0     2
       493.824069       23.261221      466.441623     1     0     0     0     6
       287.161427      217.676948      109.645750     1     0     0     0     7
       124.593334      448.716531      312.637037     1     0     0     0     7
       267.483071      119.550781      146.715190     1     0     0     0     4
       186.877516        5.746307        8.447376     1     0     0     0     8
       107.060797      479.780351      229.371475     1     0     0     0     4
       164.039144      273.388846      445.935967     1     0     0     0     8
       285.772916      272.772106      197.711243     1     0     0     0     8
       206.005257       66.239999      393.103219     1     0     0     0     8
       438.954717      359.368517       20.803131     1     0     0     0     5
        12.330620      230.844371      249.084146     1     0     0     0     2
       205.729325      344.513650      296.357731     1     0     0     0     2
        68.510079      429.389791       63.495446     1     0     0     0     4
        61.982842      333.628498      263.388709     1     0     0     0     5
       180.398988      491.368655      314.682975     1     0     0     0     5
       473.478477      266.608150      465.143859     1     0     0     0     8
       315.057092      334.362855       20.660463     1     0     0     0     6
       395.304756       42.326373      193.255491     1     0     0     0     4
       199.957565      491.907570       15.526621     1     0     0     0     6
        75.598205      207.834331       47.663489     1     0     0     0     2
        55.219697      230.952635       70.250195     1     0     0     0     4
       257.767670      329.471642       78.068759     1     0     0     0     6
       108.449264      261.881993       18.892265     1     0     0     0     1
       390.456106      252.661884      346.140393     1     0     0     0     1
       362.596061      218.091025      421.105649     1     0     0     0     5
       144.601576      406.684494      102.731393     1     0     0     0     4
        28.169395      231.449136      314.872995     1     0     0     0     2
       317.473844      174.423976       41.782949     1     0     0     0     5
       268.161442      168.286591       77.785761     1     0     0     0     6
       291.540272      247.536275       60.905671     1     0     0     0     3
       478.450509      454.669706       59.455147     1     0     0     0     7
       127.253331      352.450394      325.588748     1     0     0     0     2
        95.114026      240.557328      213.392699     1     0     0     0     3
       112.762214      173.182218      399.790163     1     0     0     0     4
       315.348595       69.580092      414.204804     1     0     0     0     6
       152.911469      157.726439      419.218584     1     0     0     0     4
       307.067590      184.715184      464.758683     1     0     0     0     5
       253.894271      373.445724      176.988654     1     0     0     0     4
        99.944231      221.797255      410.274190     1     0     0     0     1
        39.875998      407.357105      272.321764     1     0     0     0     1
       157.373072       99.141046      164.691567     1     0     0     0     6
       469.660854      182.669435      176.572409     1     0     0     0     4
       313.493892      306.844345      340.741933     1     0     0     0     8
        81.621656      189.297959        4.127373   379     0     0     0     4
       481.805563      339.900144      215.977779     1     0     0     0     7
       463.819836      490.796227       37.760742     1     0     0     0     4
       241.829230      237.600190      325.872373     1     0     0     0     8