ITEM: TIMESTEP
0
ITEM: NUMBER OF ATOMS
        1416
ITEM: BOX BOUNDS pp pp pp
  0.0000000E+00   500.000000000000     
  0.0000000E+00   500.000000000000     
  0.0000000E+00   500.000000000000     
ITEM: ATOMS x y z nV nH f3 f4 orient
        73.420512      255.261263      275.453915     1     0     0     0     8
       397.651199      355.209734      491.277872     1     0     0     0     1
       158.909913       29.786302      158.994377     1     0     0     0     1
       368.646802      154.100043      162.004933     1     0     0     0     5
       426.198800      232.007340      177.693074     1     0     0     0     1
        89.007620      217.555678       45.931620     1     0     0     0     1
       120.030133      484.653146       81.806839     1     0     0     0     2
       177.991092      471.124963      459.277304     1     0     0     0     3
       169.412038      380.802559      200.436665     1     0     0     0     6
       131.381800      323.162459      427.471886     1     0     0     0     6
       177.695341      136.327617       13.191102     1     0     0     0     3
       315.199160      237.725903      173.792718     1     0     0     0     8
       365.434674      144.896969      110.774124     1     0     0     0     6
       385.218730      411.042760      476.665836     1     0     0     0     6
       451.040045       42.643664      187.985302     1     0     0     0     8
        41.816070      223.438391      363.372239     1     0     0     0     5
       295.260880      432.222987      266.393585     1     0     0     0     3
       406.829045      389.048054      176.513415     1     0     0     0     2
       282.393598      163.644063      276.169100     1     0     0     0     7
       112.793818      479.707769      246.355160     1     0     0     0     8
       499.201795      483.836464      149.852697     1     0     0     0     8
        64.145027      307.565780       99.813824     1     0     0     0     6
        18.730105      294.689579      231.143004     1     0     0     0     8
       277.704572      437.384249      182.473781     1     0     0     0     7
        88.661253       33.778809      172.377106     1     0     0     0     4
       414.031053      389.834912      242.625155     1     0     0     0     8
        28.055968      490.975787      402.099413     1     0     0     0     2
       471.463520      309.926931      150.336612     1     0     0     0     5
        17.807113      125.529395       20.011187     1     0     0     0     5
       437.535997       71.734894      259.293330     1     0     0     0     3
       226.391270      489.876866      267.614965     1     0     0     0     4
        45.608911      180.892635      150.163268     1     0     0     0     3
        84.656127      433.105638      278.170162     1     0     0     0     2
       161.728566      170.670778      339.251947     1     0     0     0     7
       317.538289      269.777237      469.694914     1     0     0     0     8
       447.482091      269.080029      209.823450     1     0     0     0     8
       177.931664       71.480844      485.286439     1     0     0     0     7
       137.018234      371.511004      434.578585     1     0     0     0     3
       303.350145      123.341090       11.942998     1     0     0     0     8
        18.531220      463.130633      325.018628     1     0     0     0     8
       139.192312      238.637476      136.116617     1     0     0     0     2
       159.383317      333.710269      284.157705     1     0     0     0     5
       141.996512      482.955153      440.756477     1     0     0     0     4
        81.156164        1.394155       68.713127     1     0     0     0     5
        57.031183      302.610049      106.578441     1     0     0     0     8
       374.696139      254.184037      197.385413     1     0     0     0     4
       127.942831      368.721588      393.860441     1     0     0     0     8
       144.268144      231.390497      105.255146     1     0     0     0     6
       110.003182      141.931946      311.903758     1     0     0     0     8
       314.152946      257.637121      175.223486     1     0     0     0     8
       216.226469       66.489230      333.077820     1     0     0     0     1
       284.735763      242.730329      175.194778     1     0     0     0     6
        90.528527      409.097497      397.267805     1     0     0     0     5
       235.458899       46.886519      309.079408     1     0     0     0     1
       340.236567      293.214792      196.075128     1     0     0     0     1
         7.313421      103.596531      498.805789     1     0     0     0     6
       383.222316      122.359320      201.385897     1     0     0     0     1
       139.674362      202.098942      444.065853     1     0     0     0     8
       485.086829      373.616750      169.620887     1     0     0     0     3
       374.844236      357.648446      183.247882     1     0     0     0     4
       167.152169      162.369329      463.359544     1     0     0     0     3
       384.719244      385.003848      424.613648     1     0     0     0     8
       349.437147      173.309699      130.572194     1     0     0     0     7
       428.937657      432.806387      329.735481     1     0     0     0     7
       305.253816      235.458071      465.606547     1     0     0     0     4
        54.060539      234.733698       43.504599     1     0     0     0     2
       400.246179      330.865247      228.932777     1     0     0     0     6
       325.040308      186.815628       90.230847     1     0     0     0     5
        25.476920       18.800524       46.424915     1     0     0     0     7
       335.553339       21.609521      351.305501     1     0     0     0     5
       423.795489      488.670589      360.054032     1     0     0     0     4
        56.100401      318.130683        5.014090   300     0     0     0     6
       497.131547       26.061034      217.408851     1     0     0     0     2
       325.958739        3.628128      447.509268     1     0     0     0     7
        46.317543       78.901270      169.724548     1     0     0     0     2
       361.660197       97.117493      327.060786     1     0     0     0     6
       461.930308      106.086794      480.706142     1     0     0     0     1
       435.401684      353.830169      264.036993     1     0     0     0     2
       491.064371      345.705157      259.844829     1     0     0     0     2
       393.814141      216.765151      482.173570     1     0     0     0     3
       228.347392      414.854162      470.505992     1     0     0     0     6
       451.639826      259.106575       22.261112     1     0     0     0     7
       166.555290      419.708851      241.218887   411     0     0     0     5
        95.493332      356.283700      431.958846     1     0     0     0     1
       149.711146      147.926105      146.284894     1     0     0     0     2
        44.784804      489.408001      181.228767     1     0     0     0     5
       184.169026      476.398065      304.400537     1     0     0     0     8
       135.218719      483.187732      227.461147     1     0     0     0     7
       388.251963      398.596281      182.189045     1     0     0     0     6
       291.971518      475.608705      331.240889     1     0     0     0     4
       127.939885      134.486500      463.743665     1     0     0     0     2
        41.733706      124.742381      211.982786     1     0     0     0     3
       264.728514       28.100398      109.714427     1     0     0     0     7
       408.727260      371.023698      119.880402     1     0     0     0     7
       320.065090      454.296923      450.114557     1     0     0     0     6
       339.424512      149.830272      404.397336     1     0     0     0     4
       257.282769      230.188292      303.505609     1     0     0     0     6
        60.247910      189.783119      292.764913     1     0     0     0     4
       257.544836      165.630868      308.803380     1     0     0     0     2
       489.950146        9.963832      492.179887     1     0     0     0     4
       225.011861      156.842319      438.406299     1     0     0     0     8
       349.715114      493.031033       82.864612     1     0     0     0     4
       375.669618      399.849166      381.852332     1     0     0     0     4
       443.579017      149.924426      362.301683     1     0     0     0     6
       249.000605       70.665554       45.041184     1     0     0     0     1
        64.352828       42.166186      390.816332     1     0     0     0     7
       408.946018      351.814042      167.576405     1     0     0     0     3
       295.631135      283.320523      457.731761     1     0     0     0     1
       344.189867      352.901101      151.581299     1     0     0     0     8
       401.693961      106.988146      353.811161     1     0     0     0     8
        82.078599      147.788918       69.758379     1     0     0     0     3
       134.025303       53.907771        7.571236     1     0     0     0     6
       333.438752       88.227691      403.654626     1     0     0     0     2
       336.649207      204.471772      346.670259     1     0     0     0     1
       330.548456      304.929096      262.291797     1     0     0     0     8
       479.137279      351.084906       72.876424     1     0     0     0     5
       204.921525      428.871302      346.399271     1     0     0     0     5
       369.581325      133.081415      227.143568     1     0     0     0     1
       388.447358      227.685761      268.771450     1     0     0     0     4
       321.145544      320.012631      393.596440     1     0     0     0     2
        89.330160      497.849536       42.430348     1     0     0     0     8
       136.566453       92.771217      127.225177     1     0     0     0     7
       283.961124      458.567673       19.555077     1     0     0     0     2
       302.143413      233.343800      267.555528     1     0     0     0     6
       425.525545      264.787813      158.023468     1     0     0     0     5
       184.007236       79.762330      120.991151     1     0     0     0     6
       293.689510      417.477270      465.519604     1     0     0     0     4
       460.990681      273.350488       27.623678     1     0     0     0     8
       435.566779      467.688189      430.704745     1     0     0     0     6
       349.231025      293.284428      145.866634     1     0     0     0     7
       448.282780       33.350466        3.883647     1     0     0     0     7
       362.488531       14.918814       56.323435     1     0     0     0     1
        40.112546      242.194237      370.375754     1     0     0     0     2
       426.972691      442.908560      174.016207     1     0     0     0     4
       206.096703      249.478303      178.595115     1     0     0     0     4
       306.637264      115.875586       61.653105     1     0     0     0     4
       224.931351      273.129085       60.289058     1     0     0     0     4
       408.904513       42.597450      314.222227     1     0     0     0     5
       363.149524      426.863870      201.398701     1     0     0     0     6
       111.262724      314.453204      273.447613     1     0     0     0     3
        55.734603      464.860205      341.997543     1     0     0     0     7
       216.885654      322.982735      478.026234     1     0     0     0     7
        89.905634      496.909704      101.041458     1     0     0     0     4
       310.120216      450.192505      449.724830     1     0     0     0     2
       250.669003      439.042516      494.075881     1     0     0     0     6
        27.220912       85.877029       12.435634     1     0     0     0     3
         8.627516      230.285608      496.847277     1     0     0     0     7
        48.570394      457.422259      258.238373     1     0     0     0     3
        31.563287       83.199984      194.221634     1     0     0     0     2
       328.398255      163.327972      313.687483     1     0     0     0     4
       427.948633      115.010969      407.636081     1     0     0     0     1
       282.401093      371.076743      458.277025     1     0     0     0     4
        58.270450      276.386628      324.162647     1     0     0     0     7
       150.547895       26.810180      316.134398     1     0     0     0     3
       490.972679       36.500978      370.927674     1     0     0     0     8
        60.585869      396.230942      278.450883     1     0     0     0     3
       212.002239       21.473946      227.679655     1     0     0     0     2
       139.709351      227.649598      205.742178     1     0     0     0     5
       414.662007      360.061345      398.606414     1     0     0     0     5
        27.024557      473.727179      223.538972     1     0     0     0     6
       266.283327      272.521816      172.813627     1     0     0     0     2
       170.157751      349.382958      102.030737     1     0     0     0     2
       489.199546      208.092971      349.721709     1     0     0     0     1
       368.078406      378.422906      417.041432     1     0     0     0     1
       322.991239      443.700657      166.885707     1     0     0     0     3
       155.422460      241.137571      149.150597     1     0     0     0     5
       478.764688       36.995697      460.469907     1     0     0     0     7
        53.405450      471.768058      477.000329     1     0     0     0     2
        12.036246      215.045326      132.735492     1     0     0     0     3
       426.008377      455.978564      291.144051     1     0     0     0     3
        19.564873      300.678317      401.951754     1     0     0     0     8
       311.126371      468.448185      212.335383     1     0     0     0     2
       319.089425       30.315705      359.134056     1     0     0     0     6
       343.761842      138.697675      201.414281     1     0     0     0     5
       138.111779      413.377802      373.002911     1     0     0     0     4
       251.693816      325.418006      245.393996     1     0     0     0     7
       196.612994      376.643067      487.021296     1     0     0     0     7
       454.887760      472.797940       85.444237     1     0     0     0     6
        26.671124      220.160221      298.570994     1     0     0     0     4
       443.363237      157.956394      139.263592     1     0     0     0     4
       191.863142      480.927031      315.697319     1     0     0     0     6
       232.264725       55.194101        7.781646     1     0     0     0     3
       289.472406      496.345084      465.933824     1     0     0     0     6
       239.431920      318.507641      262.132900     1     0     0     0     4
       272.426745      377.821494      492.435767     1     0     0     0     7
       419.049273      489.511254      363.161521     1     0     0     0     3
       236.116979      110.340318      344.576588     1     0     0     0     8
       355.638070      463.991507      497.489454     1     0     0     0     2
        88.767408      354.147000      235.786567     1     0     0     0     1
       402.746829      173.332341      408.929429     1     0     0     0     1
        88.964873      335.703886      434.663600     1     0     0     0     5
       290.490886      123.140345      380.022965     1     0     0     0     6
       113.562502       66.863004      472.443830     1     0     0     0     2
       374.449165      340.905353       19.480303     1     0     0     0     5
       182.220664      259.421274      422.255731     1     0     0     0     4
        23.441439      366.692644      131.511761     1     0     0     0     1
       475.809490      393.900079      184.237408     1     0     0     0     3
       407.377462      207.046428      314.799954     1     0     0     0     8
       483.368122      173.438539      340.028973     1     0     0     0     4
       458.815758      470.821392       72.422500     1     0     0     0     8
       331.959529      267.188119      197.981304     1     0     0     0     2
       176.236532      415.996479      339.708790     1     0     0     0     5
        98.065469      405.606575      300.792018     1     0     0     0     2
       245.228941      482.692958      219.779705     1     0     0     0     2
       496.395330       11.198724      181.813627     1     0     0     0     2
       147.275389       97.814891      105.821401     1     0     0     0     3
         4.352961      269.873150      373.673082     1     0     0     0     6
       374.758606      383.973073      216.379396     1     0     0     0     6
       413.050809      309.088273      140.366743     1     0     0     0     2
       338.452259      100.724296      138.598099     1     0     0     0     2
       153.860653      374.172308      159.738965     1     0     0     0     7
       400.373648       70.468354      266.392941     1     0     0     0     6
       228.548481      343.594424      241.199297     1     0     0     0     8
       399.466142      189.329687      254.237148     1     0     0     0     3
       148.369471      475.141024      118.635884     1     0     0     0     6
       453.309422      412.179143      210.133561     1     0     0     0     6
        19.326625      424.252839       66.427171     1     0     0     0     6
        38.874823      226.525089      469.592788     1     0     0     0     5
       412.734669      252.940395      100.525327     1     0     0     0     7
       424.659090      492.016312      150.903100     1     0     0     0     7
       242.767932      110.940285      439.725535     1     0     0     0     3
       375.985878      180.980416      368.741177     1     0     0     0     3
       218.506616      310.953629       69.986904     1     0     0     0     1
       107.797276      423.254568      407.781149     1     0     0     0     8
       331.782162      150.448615      317.071391     1     0     0     0     4
        26.455179      219.128088      253.646758     1     0     0     0     3
       350.128262      361.023098      166.434802     1     0     0     0     2
       248.533165      384.569535      353.798997     1     0     0     0     4
       306.032236      356.883049      338.030824     1     0     0     0     5
         0.485665      181.784241       96.393282     1     0     0     0     5
        61.205384       72.669131      496.045417     1     0     0     0     2
       448.000162      449.042213      294.239113     1     0     0     0     7
        64.379908      243.356946       95.072170     1     0     0     0     7
       231.087591      213.389416      349.869782     1     0     0     0     3
       311.985465      340.508678      218.921752     1     0     0     0     7
       262.819696      461.198031      410.451739     1     0     0     0     5
       383.043110      327.980038       53.671528     1     0     0     0     3
        20.390137      476.734540      428.159268     1     0     0     0     2
       238.173583      345.703467      262.084730     1     0     0     0     5
        57.804075      326.440719      437.552699     1     0     0     0     2
       248.708611      318.288883      281.342556     1     0     0     0     6
         1.176980      163.039115      109.215627     1     0     0     0     5
       156.445613      126.026809      148.003595     1     0     0     0     6
       434.120845       44.881378       91.617731     1     0     0     0     4
       223.132717      184.178479      260.469039     1     0     0     0     1
       234.115622      399.344388      379.212692     1     0     0     0     5
       335.065139       65.003818       69.745495     1     0     0     0     7
       382.178451      196.178571      406.682882     1     0     0     0     1
       298.266554       42.107211      147.890681   220     0     0     0     8
       454.603141       39.985963       41.888857     1     0     0     0     3
       390.755488      143.065880       44.146697     1     0     0     0     4
       267.838308      479.381574        0.184054   359     0     0     0     2
       485.852456      426.013718      162.942301     1     0     0     0     2
       191.160017       83.857533      444.790118     1     0     0     0     1
       124.480350      157.041022      203.755383     1     0     0     0     3
       112.790744      296.450438      464.119259     1     0     0     0     4
       194.795158      222.082640      253.983247     1     0     0     0     7
       266.660374      292.767271      106.016405     1     0     0     0     4
       486.816976      475.786799      406.659089     1     0     0     0     5
       311.414373      346.383185      204.273834     1     0     0     0     7
       222.364315      398.373445       46.527201     1     0     0     0     8
       482.508224      208.637125      118.857315     1     0     0     0     5
       275.667449      399.298905       29.079937     1     0     0     0     1
       338.743172       79.802564      450.648654     1     0     0     0     1
       490.352459      295.631672       82.916056     1     0     0     0     7
       469.871158      387.472955       44.164734     1     0     0     0     2
       119.105388      334.122373      139.403350     1     0     0     0     8
       340.422301      386.268572      447.257944     1     0     0     0     5
       229.480892      277.661719      261.497711     1     0     0     0     6
       316.803209      161.080142      334.870269     1     0     0     0     3
        16.154338      115.115865       57.481810     1     0     0     0     2
       339.606087      109.691121      488.105397     1     0     0     0     4
       160.601980      116.823580       71.766101     1     0     0     0     1
        22.475070      195.049686      318.064872     1     0     0     0     1
       249.569485      192.456820      312.578429     1     0     0     0     6
       212.871225      462.549563       38.915811     1     0     0     0     6
        67.115204      436.108237      290.313768     1     0     0     0     4
       394.899811      296.421186      323.136180     1     0     0     0     3
       478.387792      125.524024      307.159053     1     0     0     0     6
        43.035661      176.801648      310.703246     1     0     0     0     4
       234.514980      451.393714       89.524763     1     0     0     0     1
       249.952709      470.053635      420.315978     1     0     0     0     2
       194.731851      459.087830       78.227981     1     0     0     0     5
        80.467433      477.059361      457.382353     1     0     0     0     5
       216.706539      255.023803      337.160352     1     0     0     0     1
       196.019536      272.393789      129.209959     1     0     0     0     7
       492.155200      166.533194      496.852324     1     0     0     0     7
       123.477626       95.922983      303.781133     1     0     0     0     2
       217.095708      334.182288      302.788488     1     0     0     0     2
       107.179460      321.955413      294.763342     1     0     0     0     2
       332.327185      499.843546      488.916427     1     0     0     0     3
       186.162115      283.295231       21.984449     1     0     0     0     3
       146.678759      220.873754      208.428595    71     0     0     0     1
       353.725614      339.529721       24.260684     1     0     0     0     3
       287.868539      298.644299       55.390483     1     0     0     0     2
       146.477110      426.300277       18.713757     1     0     0     0     7
       498.011687      150.334112       90.496152     1     0     0     0     1
       388.716959      261.285931      138.573787     1     0     0     0     8
       250.396847      129.405064      423.211277     1     0     0     0     7
       348.767736      450.087810       64.780142     1     0     0     0     5
       108.990136       38.227531      213.882461     1     0     0     0     6
       412.832769       29.259433      203.164023     1     0     0     0     5
       209.290961      154.461504      410.606206     1     0     0     0     1
       335.825474      117.701322      411.584702     1     0     0     0     8
       363.721871      405.108244      452.183481     1     0     0     0     5
       411.063943      294.964664        4.123517     1     0     0     0     1
       392.842267      165.287727      283.492486     1     0     0     0     5
       425.895534      479.037806      230.405687     1     0     0     0     3
       281.327487      291.655868       88.981587     1     0     0     0     8
       443.632170      382.876143      182.351355     1     0     0     0     7
       237.099032      374.588982      457.331318   147     0     0     0     6
       411.248049      320.191031      181.006865     1     0     0     0     3
       169.139404      105.274267      333.905820     1     0     0     0     5
       252.698365       50.059810      407.629369     1     0     0     0     2
        50.647586       24.687519      434.640539     1     0     0     0     7
       393.706874      364.652860      411.630663     1     0     0     0     8
       304.556649       55.583005       32.054859     1     0     0     0     7
        77.040009       48.505644      337.484904     1     0     0     0     7
       404.631906       50.281544        8.528301     1     0     0     0     8
       215.131670      234.095501      462.716070     1     0     0     0     5
       157.051728      190.367987      416.899201     1     0     0     0     1
       289.334328      470.712685      159.016065     1     0     0     0     2
       477.524763      353.186497      339.541473     1     0     0     0     8
       108.943491      478.196649      135.026249     1     0     0     0     3
        81.507656      189.250186        4.046219   433     0     0     0     8
       152.715167      349.236964      295.974019     1     0     0     0     7
       359.854985      394.536408       19.351777     1     0     0     0     4
       475.590732      349.369226      178.125866     1     0     0     0     8
       476.864415      112.510296       78.766623     1     0     0     0     8
       242.554629      277.587997      380.965446     1     0     0     0     2
       305.715264       36.445016      228.525525     1     0     0     0     2
       377.749985      396.865034       39.756367     1     0     0     0     3
       388.040183      351.460812      301.549013     1     0     0     0     7
       313.419301      189.785247      309.767830     1     0     0     0     6
        41.631721      334.216498       92.507226     1     0     0     0     6
        15.604558       62.059633      317.202640     1     0     0     0     3
        84.066844      449.320900      319.230609     1     0     0     0     3
       323.879804      456.314669       57.064979     1     0     0     0     6
       420.056706      336.023740      305.880427     1     0     0     0     8
       401.561397      204.233981       68.966529     1     0     0     0     3
       231.003222      359.915679       91.650410     1     0     0     0     2
       332.431306      346.494330      356.720374     1     0     0     0     7
        16.122068      390.636712       56.240722     1     0     0     0     1
        19.470142       72.929998      265.568863     1     0     0     0     5
       279.681846      368.099689      317.047749     1     0     0     0     3
       119.993740      341.221176      249.734501     1     0     0     0     7
       117.067119      463.469629      342.456684     1     0     0     0     4
       119.373388      209.896623       86.118326     1     0     0     0     7
       431.653986      311.067563       47.660590     1     0     0     0     3
       328.803943      311.448555       52.826288     1     0     0     0     6
       406.087566      234.663109      435.104023     1     0     0     0     1
       471.634935      250.282872       38.938291     1     0     0     0     6
        41.850479      248.976215       41.646074     1     0     0     0     5
       324.488950       98.082539      335.416309     1     0     0     0     1
       103.381752      314.140399      243.204790     1     0     0     0     7
       205.329846      251.246583      303.398753     1     0     0     0     3
       214.451101      459.168205      395.351576     1     0     0     0     6
        66.994463       36.438576      353.969734     1     0     0     0     4
        53.516903       94.276458      220.794706     1     0     0     0     3
       313.885035      499.323425      206.431161     1     0     0     0     2
       150.358397       24.536129      499.135861     1     0     0     0     4
       324.489788      122.071087      239.995443     1     0     0     0     2
        97.812731      286.414539      149.315511     1     0     0     0     1
       444.797057      256.237796      375.801854     1     0     0     0     7
       248.897950      109.962436      480.262923     1     0     0     0     6
       476.724419      492.917649      444.194293     1     0     0     0     8
       355.022374      216.686959      261.211267     1     0     0     0     8
       223.123149      166.051520      470.150607     1     0     0     0     6
       186.035227      159.729802      311.787906     1     0     0     0     8
       490.163297      256.307067      438.331928     1     0     0     0     3
        84.446515      276.389315      138.429682     1     0     0     0     4
       271.867016       24.181508      252.718706     1     0     0     0     7