ITEM: TIMESTEP
0
ITEM: NUMBER OF ATOMS
         156
ITEM: BOX BOUNDS pp pp pp
  0.0000000E+00   500.000000000000     
  0.0000000E+00   500.000000000000     
  0.0000000E+00   500.000000000000     
ITEM: ATOMS x y z f1 f2 f3 f4 orient radius
       302.476649       20.912891        1.993588     1     0     0     0     8   1.560
       161.093296      429.203835      226.506052     1     0     0     0     3   1.560
        90.673010      178.130319      297.267624     1     0     0     0     7   1.560
       298.496354      491.079590      221.863056     1     0     0     0     3   1.560
        75.254677      138.345740        9.181508     1     0     0     0     4   1.560
       154.537931      229.604541        7.144600     1     0     0     0     3   1.560
       175.745622      134.145062      199.972089     1     0     0     0     6   1.560
       303.597709      131.262905      330.758075     1     0     0     0     7   1.560
       417.980693      458.107552      137.794133   278     0     0     0     2  10.180
       212.977459      402.944684      374.475459     1     0     0     0     2   1.560
       422.627535       21.476777      266.253056     1     0     0     0     4   1.560
       280.287420      462.895759      172.393169     1     0     0     0     5   1.560
       306.069941      222.091797      121.889954   451     0     0     0     2  11.960
        98.970966      406.590799       37.254173     1     0     0     0     4   1.560
       289.763730      102.935669      370.454744   350     0     0     0     3  10.990
        61.172324      440.063100      237.802834     1     0     0     0     4   1.560
        15.129412      388.113493      195.068017   229     0     0     0     2   9.540
       213.702188      298.545757      413.185804     1     0     0     0     5   1.560
       239.473251      102.981243      363.937334   368     0     0     0     8  11.180
       123.034938      392.638939      232.109518   220     0     0     0     5   9.420
       151.719692      288.701739      364.370363     1     0     0     0     7   1.560
       316.012021      162.894074      238.217169     1     0     0     0     8   1.560
       143.322464      460.452604      491.503562     1     0     0     0     1   1.560
       316.894972      112.487878      180.550624   347     0     0     0     1  10.960
       270.631562      182.981628      100.299126     1     0     0     0     5   1.560
       136.926442      160.404092      476.474118     1     0     0     0     2   1.560
        54.975790      190.208926       31.263340     1     0     0     0     8   1.560
       208.763362      371.225576      339.416765     1     0     0     0     4   1.560
        17.547430      106.039242      303.129607     1     0     0     0     1   1.560
       106.813787      343.274135      420.263892     1     0     0     0     1   1.560
       399.029686      231.817620      262.037991     1     0     0     0     1   1.560
       123.131777      467.238826      111.004978     1     0     0     0     7   1.560
       123.673732      385.644878      202.173936     1     0     0     0     8   1.560
       191.026028      384.611493      286.996013     1     0     0     0     3   1.560
        88.676248      167.143140      385.708989     1     0     0     0     5   1.560
       438.443405      156.365966       50.880025   176     0     0     0     3   8.740
       164.056855      454.849616      135.768136   374     0     0     0     5  11.240
       313.490138      448.735723      114.766667   121     0     0     0     2   7.720
       406.604991      329.222816      290.381201   292     0     0     0     6  10.350
       142.544129      219.217230      255.921165     1     0     0     0     7   1.560
       227.259438      202.663132      449.915997   415     0     0     0     1  11.640
       290.536238       92.339205       15.431368     1     0     0     0     8   1.560
       182.575326      410.524248      232.436137     1     0     0     0     7   1.560
       130.398172      177.424257      215.577854     1     0     0     0     1   1.560
        37.906999      475.185562      463.209654     1     0     0     0     2   1.560
        75.149813      485.367846      265.692738     1     0     0     0     3   1.560
       219.430556       89.057104      422.495741     1     0     0     0     3   1.560
       401.718834      143.000445      209.502266     1     0     0     0     2   1.560
       146.137101      225.217589       95.463410     1     0     0     0     3   1.560
        41.842206      484.854891      250.412975     1     0     0     0     4   1.560
       304.384958       37.446178      333.885967     1     0     0     0     6   1.560
       112.557312      150.573076      112.945960     1     0     0     0     8   1.560
        73.310049       49.103621      440.772497     1     0     0     0     4   1.560
       484.377513       75.430086      265.782049     1     0     0     0     5   1.560
       415.702775      474.640428      198.235436   360     0     0     0     7  11.100
       188.625785      337.298188      145.846951     1     0     0     0     7   1.560
       482.341491      304.986567      116.271473     1     0     0     0     2   1.560
       232.163280      216.889298       57.149542   421     0     0     0     8  11.690
       354.064565        2.390107      153.034831     1     0     0     0     8   1.560
         3.927417      274.985345      304.918743   301     0     0     0     5  10.450
       183.912094       38.070637       21.667312     1     0     0     0     4   1.560
       422.481559       26.183364      274.776206     1     0     0     0     4   1.560
       446.248201      384.693635      413.270724     1     0     0     0     7   1.560
        65.646191      190.973310      433.553932     1     0     0     0     3   1.560
        13.412661      295.411548      136.478486     1     0     0     0     7   1.560
        70.214988      294.806334      198.777244     1     0     0     0     8   1.560
       378.792695       74.974250      298.568695   214     0     0     0     6   9.330
        56.822062      423.308908      248.630948     1     0     0     0     1   1.560
        37.173883      161.981266      379.467579     1     0     0     0     6   1.560
       270.291708       92.441012      460.696295     1     0     0     0     8   1.560
       116.927229      208.271592       54.802998   440     0     0     0     8  11.870
       206.447543      206.289407      328.957863     1     0     0     0     6   1.560
       246.452689      468.492163      265.091613     1     0     0     0     5   1.560
       337.830633      436.046283      330.881757     1     0     0     0     6   1.560
         8.365492      211.641008      245.237050     1     0     0     0     2   1.560
       317.194017       95.762243      457.868657     1     0     0     0     1   1.560
       353.168306      454.822331      166.216909     1     0     0     0     2   1.560
       269.397645      393.295380       65.193629     1     0     0     0     3   1.560
       164.511939      151.093354      310.428181     1     0     0     0     8   1.560
       363.252664      261.682431      420.424244     1     0     0     0     5   1.560
       347.515460       87.377538      137.685068     1     0     0     0     3   1.560
       490.880366      176.497660      475.820083   314     0     0     0     6  10.600
       198.120428      114.935406      155.441236     1     0     0     0     5   1.560
       436.719443      111.084389      232.561534     1     0     0     0     5   1.560
        58.802751       50.512417       14.717556     1     0     0     0     8   1.560
       333.079585      294.676468       16.182902   291     0     0     0     6  10.340
       417.398784      395.310539       20.225474     1     0     0     0     2   1.560
       452.559718      102.240396      290.294665     1     0     0     0     3   1.560
       196.334266      300.935089      358.232583     1     0     0     0     3   1.560
       331.357517      197.290988      202.701091     1     0     0     0     6   1.560
        35.494609      331.055778      419.832226     1     0     0     0     6   1.560
       468.454981      230.960936      193.694917     1     0     0     0     2   1.560
       197.855467      430.874193      189.131682     1     0     0     0     5   1.560
       134.990968       55.999435      364.589360     1     0     0     0     1   1.560
       227.424355      286.041087      111.583502     1     0     0     0     3   1.560
         5.107025      466.284843      336.478809   495     0     0     0     6  12.340
       146.510902      405.944908      301.274127     1     0     0     0     8   1.560
         5.998569      495.686891      442.230285     1     0     0     0     3   1.560
       192.240904      213.330742      471.788734     1     0     0     0     1   1.560
       178.017710      234.684482      267.913135     1     0     0     0     7   1.560
       443.413799      166.089044      409.339759     1     0     0     0     7   1.560
       110.363054       74.061372      453.896443     1     0     0     0     7   1.560
        37.295942      278.612051      348.835117     1     0     0     0     8   1.560
       274.702112      421.187967      263.919302     1     0     0     0     8   1.560
       149.113417      423.716719      416.920522     1     0     0     0     4   1.560
       355.993074       41.537567      284.994491   341     0     0     0     3  10.900
        58.524958      167.920478      388.474288     1     0     0     0     1   1.560
        35.071566      203.717916       95.781626    39     0     0     0     2   5.290
        45.709582      229.836193      234.679485     1     0     0     0     2   1.560
        79.402086      385.712486      291.546301     1     0     0     0     5   1.560
       327.630381      281.158666      363.807660     1     0     0     0     6   1.560
        49.358438      444.996841      198.008308     1     0     0     0     7   1.560
         0.297623       53.572987      478.072306     1     0     0     0     6   1.560
       459.123871      185.915280      281.040293     1     0     0     0     8   1.560
       211.613642      344.608174      265.059039     1     0     0     0     3   1.560
       332.472420       25.751098      413.209973     1     0     0     0     8   1.560
       293.004951      308.083150      280.512955     1     0     0     0     7   1.560
       209.797274      315.891250      170.357528     1     0     0     0     3   1.560
        27.698772      246.607065      353.142550     1     0     0     0     8   1.560
       146.599026       48.245218       56.034542     1     0     0     0     7   1.560
       310.160407       19.000608       51.006784     1     0     0     0     3   1.560
       308.598212      132.562758      194.945876     1     0     0     0     5   1.560
        28.397759      154.035876      343.161235     1     0     0     0     6   1.560
       323.825868       55.999827      454.307657     1     0     0     0     8   1.560
       482.847398      233.375349      399.711086     1     0     0     0     8   1.560
       348.143128       17.815069      132.410680     1     0     0     0     8   1.560
       409.865622      175.071137      455.818513   282     0     0     0     5  10.230
       396.156311      483.374469      445.041380     1     0     0     0     8   1.560
       167.162074       54.359711       62.136476     1     0     0     0     2   1.560
       101.555124      369.842919      363.642461     1     0     0     0     6   1.560
       410.190090       31.604740      215.407968     1     0     0     0     8   1.560
       317.886615      393.936430      240.201593     1     0     0     0     6   1.560
       204.027788      405.622456       25.339514   317     0     0     0     8  10.640
       332.844387      300.921134      380.481174     1     0     0     0     3   1.560
        34.101802      419.303229      438.809279   290     0     0     0     8  10.330
       235.448376      394.745441      416.744173     1     0     0     0     6   1.560
       398.067105       37.183676        7.937333     1     0     0     0     4   1.560
       174.154487      167.274830      472.552495     1     0     0     0     7   1.560
       450.349060       10.084445      499.234360     1     0     0     0     8   1.560
       141.769273      151.433817      406.731336     1     0     0     0     2   1.560
       455.644844      368.014614      496.896532    26     0     0     0     3   4.620
        99.557826      200.071248      488.652170     1     0     0     0     3   1.560
       180.936492      458.076804       32.958045     1     0     0     0     8   1.560
       127.854912      143.755258      110.533489     1     0     0     0     5   1.560
       486.178846       98.949951      267.145866     1     0     0     0     4   1.560
       294.145480      448.801321      212.953916     1     0     0     0     1   1.560
        29.840109      120.578921       37.080694     1     0     0     0     2   1.560
       112.986954      381.727259       14.996973     1     0     0     0     8   1.560
       388.189920       10.070119       75.486130     1     0     0     0     2   1.560
        20.754738      351.913065       76.978038     1     0     0     0     5   1.560
        33.789881      475.962989      120.646551     1     0     0     0     3   1.560
       392.332818      295.572511       62.685947     1     0     0     0     1   1.560
        60.089472      222.168095       42.888192     1     0     0     0     2   1.560
       343.400102      454.650887      341.366238     1     0     0     0     1   1.560
       426.375977      465.361449      498.820380     1     0     0     0     4   1.560
       407.166321      481.405955      495.873988     1     0     0     0     4   1.560
