ITEM: TIMESTEP
0
ITEM: NUMBER OF ATOMS
         266
ITEM: BOX BOUNDS pp pp pp
  0.0000000E+00   500.000000000000     
  0.0000000E+00   500.000000000000     
  0.0000000E+00   500.000000000000     
ITEM: ATOMS x y z nV nH f3 f4 orient
        81.737249      189.294496        3.947768   494     0     0     0     3
       318.316018      140.795673      411.283366     1     0     0     0     2
       466.408393      334.947640      314.794396     1     0     0     0     1
       399.452672      427.130971      101.461042     1     0     0     0     7
       275.698320      390.788554      124.291198     1     0     0     0     1
       239.613880      260.495472      370.779221     1     0     0     0     1
        39.265182      323.677539      145.823886     1     0     0     0     3
       212.864608      407.344492       31.294420     1     0     0     0     8
       147.095309       51.376229      310.152989     1     0     0     0     6
       138.233219        4.842270      389.312111     1     0     0     0     2
       110.549212      418.733072      236.243579     1     0     0     0     8
       297.837075      343.939892       11.118498     1     0     0     0     6
       398.523187      174.653337      462.217372   248     0     0     0     4
       171.449498      444.350700       25.941079     1     0     0     0     2
         0.926352      254.007115      370.951304     1     0     0     0     7
        52.853767      311.758112      195.510649     1     0     0     0     4
       372.549664      432.523240      365.327085     1     0     0     0     8
       284.753571      232.053771      121.172765     1     0     0     0     4
        84.738816      421.518114       99.972142     1     0     0     0     3
       387.870011      324.634974      480.272844     1     0     0     0     6
       166.564728      391.731596      108.611514     1     0     0     0     3
        43.212623      200.171667      403.722960     1     0     0     0     6
       187.326020       37.798833       28.799321     1     0     0     0     4
       112.623323      374.246243       85.465067     1     0     0     0     2
       167.970142      464.835796      328.399289     1     0     0     0     8
       212.392957      130.804081      104.884291     1     0     0     0     2
       286.997057      290.857055       69.119219     1     0     0     0     2
       238.298362       97.534755      458.134373     1     0     0     0     7
       131.502134      185.216813      327.290215     1     0     0     0     2
       304.614489      335.032589      371.451166     1     0     0     0     2
       148.655074       93.757243      274.191074   431     0     0     0     3
       223.489119      279.666151      159.403843     1     0     0     0     8
       404.519183      340.288628      293.851710     1     0     0     0     1
        88.904712      156.981475      254.927546     1     0     0     0     3
       418.522936      380.722774       78.570323     1     0     0     0     6
       251.720695       55.774408      429.256264     1     0     0     0     2
        87.317521       42.631452      433.871941     1     0     0     0     4
       117.273563       32.063264      130.397111     1     0     0     0     4
       226.358154      340.293028      260.710716     1     0     0     0     4
        42.521929       50.789913      472.138048     1     0     0     0     6
       295.949667      139.287566      333.941270     1     0     0     0     7
       419.988021      466.931461      166.889437     1     0     0     0     4
       380.541857      434.861226      155.012875     1     0     0     0     3
       144.100147      329.166174      167.447227     1     0     0     0     8
       236.710665      495.447711      179.776230     1     0     0     0     8
         3.220714      221.078572      100.066742     1     0     0     0     2
       483.036625       73.647088      291.760096     1     0     0     0     8
         5.428805        2.297171      399.709460     1     0     0     0     1
       469.985337      173.344923      413.926207     1     0     0     0     4
       146.016447       27.145776      110.421450     1     0     0     0     3
         1.081108      363.181604      484.662938     1     0     0     0     2
       436.589696      397.738040      297.324683   400     0     0     0     7
       146.028054      431.901083      149.762487     1     0     0     0     1
       257.221053       65.928364       21.192008     1     0     0     0     8
        29.077473      147.883343      166.944889     1     0     0     0     1
       254.537211       71.603996      284.747806     1     0     0     0     6
       412.505306      155.335954      391.139200     1     0     0     0     2
       380.761864      391.741993      459.389264     1     0     0     0     5
       105.429594       59.236277       23.924524     1     0     0     0     7
       236.855761       93.881721      194.400039     1     0     0     0     1
       217.260269      256.858220      289.419141     1     0     0     0     7
       399.625950      196.701657      283.305354     1     0     0     0     1
        23.314556      205.031633      337.861545     1     0     0     0     3
       287.740812      229.375202      424.910563     1     0     0     0     5
       324.630486      445.540988       19.154545     1     0     0     0     7
       231.749304      100.481147      448.857682     1     0     0     0     1
       156.504575      236.382100      349.299100     1     0     0     0     1
       168.578129      211.756017      131.422916     1     0     0     0     1
        17.374773      297.235348      206.718544     1     0     0     0     2
       352.682318       83.522753      484.403298     1     0     0     0     3
        82.398510      128.871224      448.150823     1     0     0     0     6
       259.968595      356.813778      445.378995     1     0     0     0     3
        90.897844      208.394080      330.920708     1     0     0     0     1
       334.360204      306.568746      380.415774     1     0     0     0     7
       303.939204      225.319555       14.775157     1     0     0     0     4
        62.091079      238.826825      361.603533     1     0     0     0     5
       137.403406       55.774983      110.375792     1     0     0     0     8
       242.122091      132.890362       26.973186     1     0     0     0     2
       436.271213      220.812464       86.042177     1     0     0     0     1
       281.178433       48.301283       13.060376     1     0     0     0     4
       249.424421      451.320814      381.427391     1     0     0     0     6
       101.906198      121.500518      247.424741     1     0     0     0     5
       177.116788      180.952720      241.187853     1     0     0     0     4
       306.000637      339.992038      104.081128     1     0     0     0     2
       342.104373      226.543615      311.308157     1     0     0     0     5
       267.802412      479.462129        0.497399   423     0     0     0     5
       177.576433      220.380349        1.724055     1     0     0     0     3
       288.272454      419.848951      325.774546     1     0     0     0     8
        42.603948        1.148609      230.193382     1     0     0     0     1
       142.387132       73.975581      411.985753     1     0     0     0     6
        33.385974      279.755013      345.559027     1     0     0     0     3
        40.840664      460.612665       79.561772     1     0     0     0     4
       465.523227      178.870262       76.215002     1     0     0     0     2
       479.118957      446.102383      428.589328     1     0     0     0     7
       328.409416      172.537156      429.604529     1     0     0     0     4
       348.070741      126.919145      270.591361     1     0     0     0     7
       236.632521      130.160759      199.912583     1     0     0     0     7
       350.322822      360.126113      306.920746     1     0     0     0     5
       203.319753      492.046702      431.205347     1     0     0     0     5
       295.857728      185.244865      278.748553     1     0     0     0     7
       418.820127      120.870978       22.866180     1     0     0     0     3
        58.023541      235.988612      288.293787     1     0     0     0     5
       126.287437      138.551195      162.143391   422     0     0     0     1
       327.111811      219.598704      422.137391     1     0     0     0     8
         9.563665      114.650016      218.094256     1     0     0     0     2
       451.074874      391.153757      179.679516     1     0     0     0     2
       342.065501      124.176663      303.589619     1     0     0     0     7
       403.450669      375.784794      367.816047     1     0     0     0     1
       294.529384      420.320090      403.275813     1     0     0     0     8
        94.208572      342.838980      418.994387     1     0     0     0     4
       311.494584      403.162505       24.362755     1     0     0     0     6
        65.656071      400.576360      412.452240     1     0     0     0     1
       426.244074      243.526873      311.840771     1     0     0     0     6
       125.390593      226.582516      149.823077     1     0     0     0     4
       265.202632      462.917443      338.314260     1     0     0     0     5
        92.113795       23.776298      483.817593   162     0     0     0     6
        56.237866      318.150691        5.117887   364     0     0     0     7
       186.131503      234.692924      437.912440     1     0     0     0     7
        91.225529       46.045144      478.731404     1     0     0     0     8
        97.271474      429.904614       80.228631     1     0     0     0     2
       277.411324      297.874462      248.249234     1     0     0     0     1
       150.276073      339.827294       49.679005     1     0     0     0     6
       467.431009      344.161374      411.928211   455     0     0     0     7
        61.401498      199.698505      300.062747     1     0     0     0     3
       363.970322        9.278739      242.937594     1     0     0     0     1
       428.399972      436.014199      226.712859     1     0     0     0     3
       364.158972        3.878634      296.149888     1     0     0     0     7
       251.856763      264.389377      197.434166     1     0     0     0     3
       223.701065      220.289914      147.911703     1     0     0     0     5
       259.896021      335.147902       72.961817     1     0     0     0     2
       285.147782      401.300274       76.802552     1     0     0     0     4
       473.793111      469.755242      296.050813     1     0     0     0     5
       240.774649       98.509677      140.339557     1     0     0     0     3
       101.030636      105.049771      203.284560     1     0     0     0     8
       236.811092      374.450967      456.792672   191     0     0     0     7
       389.072761       53.372076      227.330604     1     0     0     0     2
       212.066345       36.809363       14.910865     1     0     0     0     6
       338.370526      370.767032       58.575426     1     0     0     0     1
       165.247076      483.484009      308.387171     1     0     0     0     6
       347.045336      195.441275      123.729622     1     0     0     0     7
       381.694946       52.898042        7.857715     1     0     0     0     8
       417.676201       62.876471      485.765628     1     0     0     0     2
       441.175419      332.653222      154.367582     1     0     0     0     3
       384.159069      242.537669      341.882573     1     0     0     0     5
       374.863055      466.158649      482.280829     1     0     0     0     6
       239.813177      360.297807       54.609439     1     0     0     0     5
         8.258300      200.856569      345.980614     1     0     0     0     6
       353.639255      140.745174      184.646330     1     0     0     0     6
        10.614162      244.085004       43.139595     1     0     0     0     2
       160.264576      118.353285      493.579884     1     0     0     0     8
       134.341753      437.601970      319.744285     1     0     0     0     8
       145.277339      271.442673       66.851539     1     0     0     0     1
       128.213639      266.120436      365.557674     1     0     0     0     6
       340.825568      214.886934      117.136916     1     0     0     0     2
       499.467005      288.231271      314.217056     1     0     0     0     8
       165.828046      108.989899      161.650191     1     0     0     0     5
         5.105547       85.994868      110.084030     1     0     0     0     8
       223.129941       89.634294        3.175438     1     0     0     0     7
        19.294061      222.008615      246.658078     1     0     0     0     7
       467.210485      116.465079      341.761096   519     0     0     0     5
       428.782586      166.041556      456.369092     1     0     0     0     1
       102.043289      486.346647      332.448231     1     0     0     0     6
         1.964324       38.654179      229.660049     1     0     0     0     4
        83.762327      155.993754       51.236945     1     0     0     0     2
       263.757735      301.430005      285.283829     1     0     0     0     8
       252.552811       24.453913      221.658447     1     0     0     0     5
       393.813863      143.522059      400.596861     1     0     0     0     1
       343.937621       55.182099      216.525064     1     0     0     0     5
       375.090179      273.036441      382.698290     1     0     0     0     8
       287.171191      355.124015      473.851196     1     0     0     0     2
       360.747481      326.436307       22.783606     1     0     0     0     4
       332.404686      405.674159       28.486053     1     0     0     0     2
       452.038672      405.628453      347.977161     1     0     0     0     1
       284.867986       82.902687      156.384064     1     0     0     0     1
       416.066667      261.786848       51.913680     1     0     0     0     1
       122.810263      312.226730      413.969087     1     0     0     0     2
       281.384816      277.472625      201.188606     1     0     0     0     2
       394.388294      168.518374       79.645865     1     0     0     0     3
        62.814922      128.282312      121.352269     1     0     0     0     4
        95.567542       93.188402      165.212003     1     0     0     0     3
       382.190014      158.667756       14.926612     1     0     0     0     5
       188.081300      443.708190       33.425388     1     0     0     0     7
       180.056817      366.584939      105.732847     1     0     0     0     7
        92.650802      404.760329      136.996109   466     0     0     0     8
       172.864875      423.273039       22.723994     1     0     0     0     2
       426.285599       84.578208      471.867482     1     0     0     0     6
         6.735610      443.286606       10.671350     1     0     0     0     2
       147.170080       42.889948      445.639884   314     0     0     0     2
       221.492349      119.246565      199.044863     1     0     0     0     1
        88.685129      277.320142      210.415257     1     0     0     0     2
       303.492772       63.266261      289.449822     1     0     0     0     7
       291.590452      377.211850      376.485222     1     0     0     0     2
        16.982723      400.617196      433.333257     1     0     0     0     1
       106.074266      406.116497       54.032329     1     0     0     0     3
       420.713003        3.619129      446.673045     1     0     0     0     1
       395.496954      297.098311      153.641851     1     0     0     0     2
       418.624204      461.964979      155.592655     1     0     0     0     1
       381.617851      496.379363      155.425278     1     0     0     0     8
       146.090839      343.408767       45.508950     1     0     0     0     6
       256.074599       31.953865      371.901710     1     0     0     0     6
       486.159477      246.305171      255.556373     1     0     0     0     6
       337.507037      335.437826      497.968958     1     0     0     0     2
       492.062085      377.018311        7.677419     1     0     0     0     3
       212.240640      289.082991       24.953806     1     0     0     0     5
       484.826029       38.191482       25.923082     1     0     0     0     4
       112.275547      290.336066      140.867851     1     0     0     0     5
       376.680279      198.079918       16.295917     1     0     0     0     3
       220.299893      173.252030       53.288028     1     0     0     0     3
       360.346221      265.084076       17.570067     1     0     0     0     4
        87.463020      293.832563      136.483840     1     0     0     0     5
        46.225121       74.694320      351.549073     1     0     0     0     6
       408.841921      354.795539      333.183705     1     0     0     0     6
        37.077072      220.826686      136.824396   209     0     0     0     5
       496.145020      400.234209      282.360943   444     0     0     0     4
       167.209574      212.710071      349.502225     1     0     0     0     1
       251.300641      356.538565       79.512829     1     0     0     0     4
       226.864840      344.176976      121.977224     1     0     0     0     5
       245.230050      275.488630       50.152732     1     0     0     0     6
       138.875715      362.820775        6.927022     1     0     0     0     8
       132.257329      479.584984      136.686356     1     0     0     0     4
       477.499622      477.191229        3.666424     1     0     0     0     8
       488.521077      159.796321       18.748062     1     0     0     0     2
       176.400414      291.575847      163.840497     1     0     0     0     1
       393.023234      245.322344      135.523890     1     0     0     0     6
       128.712163      120.958424      368.915804   425     0     0     0     6
        32.792771       23.909488       27.724330     1     0     0     0     8
       393.174492       14.321048      166.769090     1     0     0     0     2
       146.349509      129.689839      429.897394     1     0     0     0     2
       336.322055      466.478891      427.239014     1     0     0     0     1
        69.492531      176.172642      277.570480     1     0     0     0     2
        78.184258      381.057942      495.753932     1     0     0     0     6
       284.299233      313.753819       16.832489     1     0     0     0     4
       373.006243      219.940952      467.554217     1     0     0     0     5
       166.435060      419.847351      241.243118   465     0     0     0     5
       233.018919      461.398805      252.179221     1     0     0     0     3
        85.853335       96.572310      203.412557     1     0     0     0     5
       249.383590      117.589828       93.278916   449     0     0     0     5
        19.802939       98.342298      348.899860     1     0     0     0     4
        72.907737      147.363149       83.799188     1     0     0     0     7
       136.370147      161.243315      287.395729     1     0     0     0     2
        75.936402        3.113259      271.202563     1     0     0     0     8
       353.040893      320.019868      300.857375     1     0     0     0     8
        17.730727      212.421011      337.115144     1     0     0     0     5
       405.776512      216.525956      417.476400     1     0     0     0     3
       306.927465      112.921324      422.496878     1     0     0     0     7
       122.398004      443.398369      457.690400     1     0     0     0     2
       298.610585       42.265737      147.764105   276     0     0     0     7
       204.573775      132.515823      159.160866     1     0     0     0     8
       365.878381      109.572835      450.108347     1     0     0     0     1
       146.333322      220.260652      208.311779   110     0     0     0     4
       236.580422      416.747950      169.848993     1     0     0     0     5
        18.050178       88.259057      254.930305   371     0     0     0     1
       471.777998       12.157665        3.643932     1     0     0     0     6
       268.509524       67.616251      461.555736     1     0     0     0     4
       224.728457      356.371085      267.595778     1     0     0     0     4
       426.088842       11.918220       68.134931     1     0     0     0     4
       221.929156      456.187287       19.858036     1     0     0     0     3
       301.646614      147.283133      118.847844     1     0     0     0     3
         5.536175       39.925849      271.247768     1     0     0     0     1
        28.013437       95.335564      143.365475     1     0     0     0     2
         5.775249      228.903117      328.311889     1     0     0     0     7
        42.504410      229.427990       90.489621     1     0     0     0     1
        86.430424      155.229794      439.611601     1     0     0     0     2
       220.020760      138.779831      491.433592     1     0     0     0     3
       365.054437       95.504037      282.702017     1     0     0     0     7
       371.165978      120.606476      285.648409     1     0     0     0     4
