ITEM: TIMESTEP
0
ITEM: NUMBER OF ATOMS
          54
ITEM: BOX BOUNDS pp pp pp
  0.0000000E+00   500.000000000000     
  0.0000000E+00   500.000000000000     
  0.0000000E+00   500.000000000000     
ITEM: ATOMS x y z f1 f2 f3 f4 orient radius
       112.136118      406.979075      131.215203     1     0     0     0     4   1.560
       242.900421      196.887645      279.798047     1     0     0     0     4   1.560
       490.844040      176.446617      475.837693   316     0     0     0     8  10.630
       171.679565      402.565909      218.043979     1     0     0     0     1   1.560
       356.067315       41.564044      284.933795   345     0     0     0     5  10.940
       378.818121       74.991664      298.635281   217     0     0     0     2   9.370
       438.392900      156.415323       50.882894   181     0     0     0     4   8.820
       116.875153      208.198802       54.833507   446     0     0     0     2  11.920
        34.691839      203.848747       95.812707    43     0     0     0     8   5.470
       406.553829      329.178313      290.403062   294     0     0     0     5  10.370
       231.598651      383.356253      338.538423     1     0     0     0     5   1.560
       367.391850      210.652288      261.369809     1     0     0     0     5   1.560
       316.979076       83.132691      453.532861     1     0     0     0     7   1.560
       177.415469       44.093499      165.606170     1     0     0     0     6   1.560
       122.978535      392.784732      232.072407   229     0     0     0     4   9.540
       204.060390      405.583274       25.324973   324     0     0     0     4  10.710
        15.129412      388.113493      195.068017   229     0     0     0     2   9.540
       417.969787      458.070351      137.783031   279     0     0     0     8  10.190
       400.923849      472.367935       74.694558     1     0     0     0     6   1.560
       239.455176      103.004047      363.931548   369     0     0     0     3  11.190
        67.720919      149.786324       91.753417     1     0     0     0     1   1.560
        95.681570      444.676539      255.452492     1     0     0     0     1   1.560
         3.910823      274.981752      304.882462   304     0     0     0     5  10.490
       289.703089      429.267989      182.549460     1     0     0     0     7   1.560
       163.977504      454.813690      135.753193   378     0     0     0     5  11.280
       289.759440      102.916989      370.445827   353     0     0     0     6  11.030
       313.403920      448.697439      114.931330   126     0     0     0     8   7.820
       316.900248      112.459715      180.506233   349     0     0     0     7  10.980
       427.643487       78.342375       44.199514     1     0     0     0     2   1.560
       227.274172      202.715835      449.885397   418     0     0     0     7  11.660
       285.920662      231.854563      399.712188     1     0     0     0     5   1.560
       129.266378      246.258021      453.874667     1     0     0     0     4   1.560
       216.259702      392.391266       51.770165     1     0     0     0     7   1.560
       333.063600      294.755584       16.237870   296     0     0     0     2  10.400
       410.715133      445.908184      345.070945     1     0     0     0     8   1.560
       232.143664      216.885512       57.159604   426     0     0     0     8  11.740
       191.965756      153.960578      192.208230     1     0     0     0     1   1.560
       339.554638      418.743382       93.679999     1     0     0     0     6   1.560
       409.915569      175.063739      455.808700   284     0     0     0     4  10.250
       452.527292       74.499669      248.812721     1     0     0     0     6   1.560
       455.702290      367.744452      496.874870    28     0     0     0     4   4.740
       160.736778      186.729067      333.103013     1     0     0     0     2   1.560
       306.100906      222.047543      121.887158   456     0     0     0     8  12.010
        14.498386      358.167884      176.266461     1     0     0     0     1   1.560
        34.192048      419.298386      438.848439   296     0     0     0     6  10.400
       373.844501      409.371154      330.785584     1     0     0     0     5   1.560
       461.601021      159.426768       96.328177     1     0     0     0     7   1.560
        37.379874      455.757181      453.918491     1     0     0     0     2   1.560
       415.695452      474.614879      198.226746   363     0     0     0     1  11.130
       488.899745      492.288556      474.971939     1     0     0     0     8   1.560
        87.297336      211.312945      257.279352     1     0     0     0     3   1.560
       453.718784      403.136392      343.508063     1     0     0     0     4   1.560
       196.705159      489.516652       81.939946     1     0     0     0     7   1.560
         5.086541      466.151356      336.470607   505     0     0     0     7  12.420
