ITEM: TIMESTEP
0
ITEM: NUMBER OF ATOMS
          31
ITEM: BOX BOUNDS pp pp pp
  0.0000000E+00   500.000000000000     
  0.0000000E+00   500.000000000000     
  0.0000000E+00   500.000000000000     
ITEM: ATOMS x y z f1 f2 f3 f4 orient radius
       264.063301      495.603265      184.929103     1     0     0     0     4   1.560
         3.915313      275.016645      304.895686   305     0     0     0     7  10.500
       122.960605      392.744316      232.077480   230     0     0     0     1   9.560
       415.753138      474.593172      198.240692   365     0     0     0     6  11.150
       356.067315       41.564044      284.933795   345     0     0     0     5  10.940
        34.192048      419.298386      438.848439   296     0     0     0     6  10.400
       438.392900      156.415323       50.882894   181     0     0     0     4   8.820
       116.875153      208.198802       54.833507   446     0     0     0     2  11.920
       313.372107      448.645729      114.909076   127     0     0     0     1   7.840
       406.587796      329.187285      290.416565   295     0     0     0     2  10.380
       468.891230      408.677450      303.721777     1     0     0     0     6   1.560
        15.116864      388.137149      195.037798   230     0     0     0     7   9.560
         3.420870      386.978750      470.926953     1     0     0     0     5   1.560
       332.507801      309.872425      143.450123     1     0     0     0     7   1.560
       239.472230      103.009309      363.960696   370     0     0     0     4  11.200
       455.702290      367.744452      496.874870    28     0     0     0     4   4.740
       306.106580      222.064646      121.909084   457     0     0     0     2  12.020
       417.969787      458.070351      137.783031   279     0     0     0     8  10.190
       490.835893      176.413598      475.839545   317     0     0     0     8  10.640
       333.063600      294.755584       16.237870   296     0     0     0     2  10.400
       232.132522      216.865349       57.140095   427     0     0     0     3  11.750
       409.900438      175.029924      455.822927   285     0     0     0     8  10.270
       378.838302       75.018680      298.667605   218     0     0     0     4   9.390
       289.782714      102.895770      370.429621   354     0     0     0     7  11.040
       249.930946      440.063587       81.004452     1     0     0     0     5   1.560
         5.082096      466.126962      336.476323   508     0     0     0     6  12.450
       163.977009      454.839307      135.763890   380     0     0     0     7  11.300
        34.586876      203.966242       95.801122    44     0     0     0     7   5.510
       204.063402      405.611049       25.300039   325     0     0     0     3  10.730
       227.274172      202.715835      449.885397   418     0     0     0     7  11.660
       316.857771      112.439265      180.545091   351     0     0     0     1  11.000
