ITEM: TIMESTEP
0
ITEM: NUMBER OF ATOMS
          33
ITEM: BOX BOUNDS pp pp pp
  0.0000000E+00   500.000000000000     
  0.0000000E+00   500.000000000000     
  0.0000000E+00   500.000000000000     
ITEM: ATOMS x y z nV nH f3 f4 orient
        56.158567      318.183764        5.137914   376     0     0     0     1
       441.687823      445.735978      202.311133     1     0     0     0     8
       496.280156      400.304508      282.333604   456     0     0     0     5
       146.272590      220.069187      208.357564   117     0     0     0     6
       249.377161      117.583678       93.275961   466     0     0     0     2
        92.036832       23.807092      483.860474   169     0     0     0     2
       236.747205      374.460605      456.755373   202     0     0     0     4
       364.929181      290.256838      448.571387     1     0     0     0     2
       258.459539      443.395685      437.635146     1     0     0     0     7
       171.430987      407.745652      294.166898     1     0     0     0     2
        92.752838      404.736850      137.012782   480     0     0     0     4
        18.022011       88.243435      254.968755   377     0     0     0     5
        37.120547      220.814200      136.722087   216     0     0     0     5
       147.159104       42.878354      445.614598   321     0     0     0     6
       468.513397      199.998454      141.032685     1     0     0     0     3
       467.441253      344.159787      411.903235   467     0     0     0     8
       490.844069      413.803581      402.933964     1     0     0     0     4
       436.687706      397.711942      297.268907   412     0     0     0     3
       267.798846      479.484941        0.516674   434     0     0     0     4
       298.694179       42.231048      147.735582   290     0     0     0     6
        81.738549      189.249921        3.988349   506     0     0     0     5
       340.037838      494.666110      156.398850     1     0     0     0     1
       424.804159      187.303178      297.515277     1     0     0     0     5
       148.569590       93.745443      274.214561   441     0     0     0     7
       467.151786      116.477145      341.804966   534     0     0     0     5
       126.205423      138.515976      162.091337   429     0     0     0     6
       166.431495      419.905517      241.296554   478     0     0     0     3
       130.712886      187.856268      298.224750     1     0     0     0     5
       469.673585      477.083458      481.082460     1     0     0     0     6
       276.387339      359.136983      364.085252     1     0     0     0     3
       398.346080      174.735479      462.011716   258     0     0     0     8
         1.160509      181.838371      127.181555     1     0     0     0     2
       128.735876      120.966625      368.997767   442     0     0     0     4
