ITEM: TIMESTEP
0
ITEM: NUMBER OF ATOMS
          22
ITEM: BOX BOUNDS pp pp pp
  0.0000000E+00   500.000000000000     
  0.0000000E+00   500.000000000000     
  0.0000000E+00   500.000000000000     
ITEM: ATOMS x y z nV nH f3 f4 orient
       148.552891       93.728607      274.230296   442     0     0     0     4
       128.735876      120.966625      368.997767   442     0     0     0     4
       496.243862      400.304126      282.340950   458     0     0     0     8
       146.272590      220.069187      208.357564   117     0     0     0     6
       126.205423      138.515976      162.091337   429     0     0     0     6
        92.036832       23.807092      483.860474   169     0     0     0     2
       151.192715      293.982425       62.514745     1     0     0     0     1
        92.745023      404.736141      137.059825   482     0     0     0     8
       467.152024      116.498166      341.789875   535     0     0     0     5
       236.738082      374.442976      456.797309   203     0     0     0     4
        56.189539      318.181732        5.136147   377     0     0     0     7
        18.022011       88.243435      254.968755   377     0     0     0     5
        37.120547      220.814200      136.722087   216     0     0     0     5
       147.159104       42.878354      445.614598   321     0     0     0     6
       267.770100      479.489291        0.524919   435     0     0     0     1
       467.441253      344.159787      411.903235   467     0     0     0     8
       249.360906      117.592994       93.294092   467     0     0     0     5
       436.687706      397.711942      297.268907   412     0     0     0     3
       398.346080      174.735479      462.011716   258     0     0     0     8
       298.694179       42.231048      147.735582   290     0     0     0     6
        81.738549      189.249921        3.988349   506     0     0     0     5
       166.446122      419.928900      241.303269   479     0     0     0     7
