ITEM: TIMESTEP
0
ITEM: NUMBER OF ATOMS
        0
ITEM: BOX BOUNDS pp pp pp
  0.0000000E+00   500.000000000000     
  0.0000000E+00   500.000000000000     
  0.0000000E+00   500.000000000000     
ITEM: ATOMS x y z nV nH f3 f4 orient