ITEM: TIMESTEP
0
ITEM: NUMBER OF ATOMS
         466
ITEM: BOX BOUNDS pp pp pp
  0.0000000E+00   300.000000000000     
  0.0000000E+00   300.000000000000     
  0.0000000E+00   1000.00000000000     
ITEM: ATOMS x y z f1 f2 f3 f4 orient radius
       128.409177      121.376115      177.827187     1     6     1     0     5   1.558
        90.671045      173.771546       59.655202     1     5     2     0     2   1.558
       189.217539      120.971019       34.141200     1     4     3     0     5   1.558
        46.095725      215.954757       74.495202     1     4     3     0     1   1.558
       205.236369        9.125001      109.929200     1     4     2     0     8   1.558
        67.206766      177.429148       73.137200     1     2     5     0     3   1.558
       148.730905      283.005195      115.437203     1     3     5     0     6   1.558
       203.548487      241.322829       86.951203     1     4     3     0     2   1.558
        57.169652      174.417603       96.013200     1     1     3     0     6   1.558
        96.316587      100.167095       58.351201     1     5     2     0     4   1.558
       152.907969      129.491132       69.685197     1     6     1     0     7   1.558
         7.987889      261.541113       41.849864     1     0     0     0     1   1.560
       216.375895       40.262425        6.389200     1     0     2     0     8   1.558
       285.109975       22.262539       34.075200     1     2     2     0     3   1.558
       226.843002       94.078426        8.147200     1     2     0     0     8   1.558
       190.992737      230.257560       34.117200     1     3     4     0     7   1.558
       130.123919      175.107607       24.755200     1     6     1     0     2   1.558
       257.647371      106.189122      113.141198     1     3     4     0     2   1.558
       290.989221      222.622305       51.887200     1     3     4     0     8   1.558
        80.864930      249.506587       22.233201     1     2     5     0     8   1.558
       146.284210      215.822240       42.019200     1     3     4     0     4   1.558
       181.375790       58.107903       28.877200     1     5     2     0     1   1.558
       106.007736      169.111031      124.413201     1     3     4     0     8   1.558
       126.511242       56.167435       26.647200     1     2     1     0     5   1.558
       290.419398       57.252114       30.397200     1     5     3     0     4   1.558
        52.927140      148.378618      103.471200     1     3     4     0     5   1.558
       214.256025      199.521685       35.307198     1     2     5     0     1   1.558
       139.594018      152.507754       80.333199     1     2     5     0     6   1.558
       118.997615       89.460575       11.229200     1     1     1     0     5   1.558
        63.693249       53.516721       45.043198     1     5     2     0     6   1.558
        64.663364      293.569171       16.659199     1     3     3     0     8   1.558
       112.464285        0.970127       35.537202     1     0     3     0     5   1.558
       148.809909       74.336527       98.107201     1     2     5     0     7   1.558
       104.364031      222.298325       47.533200     1     3     4     0     2   1.558
       165.138644      228.876194      192.079201     1     1     6     0     2   1.558
       254.768293      169.316298       16.571200     1     0     1     0     8   1.558
       148.902944       43.298293       56.131200     1     3     4     0     6   1.558
        78.288062      119.494875       36.991200     1     0     3     0     5   1.558
       178.846661      100.290654       30.831200     1     0     1     0     6   1.558
       236.049623      272.000476       12.345200     1     0     0     0     6   1.560
       204.331638      124.341444       72.307198     1     4     3     0     8   1.558
        51.460559       77.946814       68.905198     1     6     1     0     1   1.558
       152.496655      126.813685       67.853196     1     3     4     0     2   1.558
       245.367981       29.163993       30.231200     1     2     3     0     3   1.558
       243.316792      189.565456       22.415200     1     3     4     0     2   1.558
       232.929361      276.300374       32.093201     1     2     5     0     1   1.558
        65.079571      120.406794       20.643201     1     5     2     0     5   1.558
        67.172490      221.892507       11.431200     1     0     0     0     2   1.560
       149.693998      217.880286       23.697201     1     3     0     0     4   1.558
       174.681162      219.933827       45.367200     1     5     2     0     2   1.558
         6.963717      192.863133       15.419200     2     6     5     0     3   1.963
        40.058326       94.347121       10.987200     1     0     1     0     8   1.558
       291.497115      243.910299       12.325200     1     0     0     0     4   1.560
       106.919850       19.889238       46.097199     1     4     3     0     7   1.558
       125.985072      212.590005       16.173200     1     2     5     0     5   1.558
        17.445212      287.849673       38.057202     1     3     4     0     4   1.558
       146.723351      159.201959       25.195199     1     0     1     0     3   1.558
       268.997590       63.971386       60.705201     1     4     3     0     6   1.558
       158.465800      141.926026       29.845200     1     5     2     0     4   1.558
        73.649658      228.644162       97.807198     1     3     4     0     5   1.558
       285.677484      233.265722      100.731202     1     2     1     0     7   1.558
       233.116490      190.318527       40.565202     1     1     6     0     7   1.558
       291.174042      215.685262       35.885201     1     4     2     0     8   1.558
       232.190096      129.252364       59.035199     1     2     5     0     1   1.558
       128.127820      226.491966       60.389203     1     6     2     0     8   1.558
        26.149803        9.417367       12.101200     1     2     0     0     4   1.558
        46.705991      248.829835       42.371197     1     3     4     0     6   1.558
        10.605540       64.095860       10.803200     1     0     2     0     2   1.558
       200.996503      173.324773       15.229200     1     0     4     0     8   1.558
       165.816651      221.451851       64.817200     1     4     3     0     7   1.558
       131.795036      148.993043       99.905198     1     0     1     0     2   1.558
       259.080485      255.579946       18.939200     1     2     5     0     2   1.558
        27.336831      140.042599       19.591201     1     1     2     0     5   1.558
       114.760245       17.417750      139.655205     1     2     5     0     3   1.558
       239.095616      188.062563       14.243200     1     3     1     0     8   1.558
        69.123469       90.432032        8.829866     1     0     0     0     8   1.560
       261.100053       33.345505       74.859200     1     5     2     0     7   1.558
       124.952261        5.286167       18.117201     1     0     1     0     7   1.558
       183.694329      214.226470       24.917199     1     5     2     0     6   1.558
       227.139886       38.511804        7.909200     1     0     0     0     8   1.560
       217.143149       78.511348       11.909200     1     2     0     0     1   1.558
        21.116733      120.923791       19.893201     1     4     1     0     1   1.558
        53.656678      207.158960       28.473201     1     0     0     0     8   1.560
        44.222221      228.538228       50.441201     1     6     1     0     7   1.558
        16.356460       10.698224       75.621201     1     3     4     0     4   1.558
        47.129080      154.716680       51.269200     1     3     4     0     6   1.558
       200.689915      265.799941       48.755200     1     3     1     0     5   1.558
       168.830911      229.506347       43.907201     1     4     3     0     1   1.558
       196.292563       74.394946       13.503200     1     3     1     0     5   1.558
       275.488185      276.478012       14.041199     1     1     1     0     5   1.558
       247.332632      298.688981       56.515202     1     6     1     0     8   1.558
        53.344543        3.376560       66.651204     1     4     2     0     3   1.558
       264.195436       43.155118       11.019200     1     2     0     0     2   1.558
        84.488553      112.148394       34.665200     1     6     1     0     5   1.558
         2.702334      220.024620       20.535201     1     3     4     0     2   1.558
       222.282295      222.052691      104.211205     1     5     2     0     7   1.558
       148.999310      161.410202       32.953200     1     1     1     0     4   1.558
       110.887967       97.994716       77.225198     1     6     1     0     2   1.558
       289.880193       92.530369       71.439202     1     5     2     0     1   1.558
       293.517381      248.602390       31.873200     1     1     1     0     5   1.558
        83.813646      223.306111       45.731202     1     2     5     0     4   1.558
        84.276364      190.798019       62.843198     1     2     5     0     4   1.558
       250.580061       63.490366       15.547200     1     2     2     0     5   1.558
       206.080479      261.693362       55.519200     1     6     1     0     4   1.558
       138.203673       53.112397       49.139203     1     4     2     0     5   1.558
        51.800527       23.970020       32.053200     1     5     2     0     8   1.558
       219.377549      229.873038       67.711198     1     4     2     0     3   1.558
       211.778548      133.705315       20.447200     1     5     2     0     3   1.558
        37.499922      162.061379        6.910533     1     1     1     0     4   1.558
        81.380424      253.894293       52.623200     1     2     5     0     4   1.558
       135.759050      166.511033       66.365197     1     5     2     0     5   1.558
       250.139425      124.093130       66.131196     1     5     2     0     8   1.558
       109.472344       83.924576       20.101201     1     1     2     0     6   1.558
       101.741696      194.965987       15.041200     1     1     0     0     4   1.558
         9.644772       13.594892       65.129201     1     3     4     0     5   1.558
       292.374418      254.959705       19.775201     1     0     2     0     6   1.558
        70.733100       74.356135       14.975200     1     2     3     0     6   1.558
       252.275236       12.262220       11.107200     1     2     3     0     8   1.558
       125.075803      204.432073       65.997197     1     4     3     0     2   1.558
       146.147193       45.586981      101.023194     1     4     3     0     7   1.558
       180.507921       57.107455       35.139199     1     4     2     0     4   1.558
       269.384126        3.950698       56.477200     1     6     1     0     2   1.558
       156.460577      217.558067       33.723199     1     3     4     0     3   1.558
       236.961628      201.514153       19.775201     1     0     0     0     8   1.560
        83.769469      227.187836       44.647202     1     4     3     0     3   1.558
        88.584587      233.840815       37.651200     1     3     4     0     1   1.558
       234.626025      289.010907       55.037202     1     4     3     0     2   1.558
       196.099548        5.303433        6.697200     1     0     1     0     5   1.558
        92.695106       59.643001      108.711198     1     1     6     0     8   1.558
       137.693070      274.817312       37.327199     1     4     3     0     5   1.558
       290.138561       63.499628       33.441201     1     5     2     0     1   1.558
       171.715778      151.822155       94.675195     1     4     3     0     2   1.558
       165.201434      195.528057       11.485200     1     1     3     0     8   1.558
        73.372434      196.228012       48.105199     1     3     4     0     1   1.558
       281.360878      212.038510        8.121200     1     0     0     0     4   1.560
        55.323970       34.651215       13.867200     1     3     4     0     3   1.558
       211.592048      191.581665       16.523200     1     4     2     0     6   1.558
        86.625107      104.957504       52.199200     1     2     2     0     2   1.558
       144.025012      155.036555       49.891198     1     3     4     0     7   1.558
        54.117749      286.627804       85.087205     1     5     2     0     5   1.558
       264.039543       90.996793       38.727200     1     3     4     0     6   1.558
       213.411216      236.444335        6.433200     1     1     0     0     5   1.558
       208.382055       35.944061       44.303200     1     3     4     0     8   1.558
        39.031881      279.665665       66.205205     1     3     4     0     3   1.558
       199.524112      211.720682       19.053200     1     2     3     0     5   1.558
       283.921425       33.876916       56.663201     1     4     3     0     4   1.558
       114.494779      191.705194       19.851201     1     6     0     0     2   1.558
         7.595756      103.118062       85.531197     1     3     4     0     4   1.558
        31.767030      284.766097      131.987206     1     2     5     0     3   1.558
       259.923478       84.106572       31.943200     1     4     3     0     2   1.558
       138.617211      282.994982       39.147202     1     3     3     0     6   1.558
        53.946024       46.363039       39.173199     1     2     5     0     8   1.558
       294.679951      198.905752       24.973201     1     0     2     0     5   1.558
       270.107860       93.168651       50.133198     1     3     1     0     5   1.558
       224.760669      259.651279      122.559197     1     2     5     0     1   1.558
        88.434842        9.864416       24.889201     1     2     5     0     2   1.558
        24.396426       25.056381       16.575200     1     1     1     0     2   1.558
         2.250012      230.944800       59.223202     1     5     2     0     4   1.558
        31.957802      191.070460       70.763200     1     5     2     0     2   1.558
        90.210634      250.105839       23.099200     1     1     2     0     4   1.558
       248.216897      197.838846       66.355199     1     4     3     0     6   1.558
       176.014127       72.589678       82.103204     1     4     3     0     6   1.558
         8.365497      280.305796      108.631203     1     1     4     0     4   1.558
       218.142011      201.201616       38.869202     1     3     4     0     6   1.558
       218.343750       34.702350       28.145200     1     5     2     0     5   1.558
       277.968509      175.393964       74.063195     1     3     4     0     7   1.558
       175.840530      207.801179       21.253199     1     2     5     0     5   1.558
       118.899174      170.830222        7.867200     1     2     1     0     4   1.558
       132.834469       38.883727       12.431200     1     3     3     0     8   1.558
        47.755159      163.472403       10.929200     1     0     1     0     7   1.558
       174.039807      167.534312       45.905198     1     5     2     0     4   1.558
        75.918412      170.941584       25.143201     1     5     2     0     1   1.558
       162.233736       86.641828       57.379201     1     3     4     0     4   1.558
       274.398833      135.184438       36.389203     1     4     3     0     3   1.558
       278.687297       25.183730       20.793198     1     3     0     0     1   1.558
       153.284000      158.319395        9.863200     1     0     0     0     4   1.560
       197.467215      198.813413       15.855201     1     0     1     0     4   1.558
       219.306224       94.824117       18.403200     1     0     1     0     4   1.558
       219.160420      159.613902        9.891200     1     1     4     0     4   1.558
        17.670714      188.533858       11.279200     1     0     3     0     8   1.558
        21.815080       14.458065       12.035200     1     1     2     0     5   1.558
        76.984442      259.107662       57.891202     1     0     7     0     8   1.558
       177.132769      270.931981       42.561200     1     5     2     0     6   1.558
       128.285915       39.344506       33.247201     1     4     0     0     6   1.558
       143.889579       12.542168       20.437199     1     0     0     0     8   1.560
       272.362070       33.641091       70.477204     1     2     5     0     5   1.558
         9.946951      200.385546       40.423199     1     3     4     0     3   1.558
       164.828597      209.109026       19.557200     1     1     0     0     5   1.558
       185.376227      184.684565       49.283200     1     5     2     0     4   1.558
       246.990793       88.714107       39.041199     1     1     6     0     7   1.558
       265.710735      224.611436       45.605202     1     1     2     0     8   1.558
       264.803963      146.952173       69.093194     1     5     2     0     8   1.558
       184.242824      214.806494       19.785201     1     0     0     0     8   1.560
       222.334008      194.204289       53.769200     1     3     4     0     7   1.558
        79.145632        2.269938       44.145200     1     5     2     0     2   1.558
        71.060195      244.494390       27.839200     1     5     2     0     4   1.558
       281.216568       41.033305       27.327201     1     4     3     0     6   1.558
        81.659756       95.440754       37.119199     1     3     4     0     7   1.558
       155.765320      140.126463       30.805199     1     2     3     0     6   1.558
       231.193682      121.644587       40.137200     1     1     2     0     8   1.558
        68.131582      273.892872       22.317200     1     0     0     0     8   1.560
        69.159766       16.344384       92.533204     1     6     1     0     7   1.558
       160.912598       32.951549      109.887200     1     6     1     0     4   1.558
        48.949195      213.720864       49.931203     1     1     5     0     2   1.558
       185.594505      118.225373       16.639866     1     1     3     0     5   1.558
        99.968057      141.979074       83.665200     1     5     2     0     1   1.558
        78.057637      258.830162       43.485200     1     3     4     0     4   1.558
        18.095175        1.950649       43.583199     1     1     5     0     8   1.558
        23.321639      198.851888       93.081200     1     3     4     0     2   1.558
       232.672881      229.749761       31.009200     1     2     5     0     8   1.558
        51.160816       66.339935       52.523198     1     2     4     0     8   1.558
       191.505900      174.087346       14.043200     1     1     0     0     3   1.558
       146.835590       16.052664       49.737199     1     5     2     0     6   1.558
       168.835895      189.026266      107.003197     1     4     3     0     6   1.558
       240.466778      169.892688      115.925202     1     3     4     0     6   1.558
        95.711039      159.037880       45.273198     1     2     5     0     8   1.558
       140.785248       32.485986       10.275200     1     1     1     0     4   1.558
       296.605915        6.760063       45.373200     1     2     5     0     3   1.558
         7.098780       18.702941       23.485200     1     1     0     0     4   1.558
       118.416406      126.900864       52.221200     1     4     3     0     3   1.558
       241.794484      177.873738       79.183198     1     2     5     0     3   1.558
       162.176761      107.004395        7.355200     1     2     1     0     8   1.558
       277.517923      185.446486       11.561200     1     0     3     0     8   1.558
         6.741775      171.061487        9.815200     1     0     0     0     6   1.560
       272.468356       78.610260      111.489197     1     1     2     0     6   1.558
       278.874970      149.225824       50.563203     1     0     7     0     4   1.558
        63.295922      265.115110       24.787200     1     1     3     0     2   1.558
       208.827944      208.757925        7.221200     1     1     1     0     2   1.558
       169.555497       82.534018       52.209203     1     5     2     0     2   1.558
        55.913665       23.366041       80.259202     1     2     4     0     3   1.558
       264.484580      269.330243       36.349198     1     3     4     0     2   1.558
        34.920540       76.611367       92.093201     1     3     4     0     6   1.558
        73.595209       83.089825       42.759198     1     4     3     0     2   1.558
       190.026010       66.161716       78.671204     1     4     3     0     4   1.558
       261.406464      140.764344       26.251200     1     2     5     0     5   1.558
       173.468672      195.740984       24.215201     1     2     4     0     2   1.558
       151.449687      164.370684       28.697200     1     1     0     0     2   1.558
       216.325016       61.357192       46.097199     1     3     4     0     2   1.558
       225.203186      183.159276       53.709203     1     4     3     0     5   1.558
       263.509799       63.406168       32.387200     1     3     3     0     3   1.558
        54.264945       38.243687       47.819199     1     2     5     0     3   1.558
        14.723698      171.298948       15.887199     1     4     3     0     5   1.558
       279.361371      151.129443       69.991204     1     1     6     0     2   1.558
       175.359045      180.455681       21.469199     1     1     3     0     2   1.558
       188.529384      297.524059       71.606202     2     3     8     0     5   1.963
       258.782878      236.274550       16.051200     1     3     4     0     6   1.558
       127.206155      217.670712        8.743200     1     0     1     0     5   1.558
       265.928488      174.705115       22.567199     1     4     1     0     5   1.558
       235.665623      190.750552       14.577201     1     2     1     0     5   1.558
        35.228566      243.607068       26.871199     1     1     3     0     7   1.558
       292.118709       65.109681       52.513200     1     3     4     0     3   1.558
       217.681250      249.035947       65.309201     1     1     0     0     6   1.558
        85.245884      164.200889       69.345200     1     2     5     0     8   1.558
       265.117718      209.502182        8.287200     1     0     0     0     5   1.560
       248.200081      111.773733       47.107201     1     1     0     0     8   1.558
       243.019637      166.393071       43.605202     1     4     3     0     6   1.558
       263.895385      194.290361      149.981194     1     4     3     0     2   1.558
       128.845618       26.855382       60.705201     1     2     5     0     1   1.558
       257.905418      290.331458       34.971200     1     3     4     0     1   1.558
        67.887660      297.512107       24.973201     1     2     4     0     2   1.558
       125.141344      238.601144       19.257201     1     3     3     0     1   1.558
        46.359027       71.099022       49.283200     1     5     2     0     5   1.558
       236.794225      106.864121       38.673424     1     1     5     0     1   1.558
        38.126909      243.871453       34.153201     1     3     2     0     2   1.558
        42.228484      255.434408       48.527200     1     2     5     0     7   1.558
       134.400736      285.279637       28.895201     1     4     3     0     4   1.558
       114.623276      177.816631       67.467194     1     3     4     0     6   1.558
       284.494910      247.103161       20.169200     1     0     0     0     8   1.560
        48.239467      203.217710       10.929200     1     1     3     0     8   1.558
       144.079061      105.477488       60.697201     1     4     3     0     4   1.558
         9.046915      269.717177       82.845200     1     4     3     0     1   1.558
       203.339622      280.289576       13.069200     2     1     1     0     5   1.963
       287.380829       19.432994      144.615197     1     4     3     0     5   1.558
        12.597031      146.308754       22.939200     1     2     4     0     2   1.558
        14.788963       59.475646       15.079200     1     2     0     0     7   1.558
       101.999970       28.409271       44.635197     1     3     4     0     3   1.558
        62.089709       55.678973       35.989201     2     5     6     0     6   1.963
        38.519585      172.421047       17.885200     1     3     4     0     2   1.558
        48.201012       54.389021       37.081200     1     3     4     0     4   1.558
       141.533513      172.283563       19.789201     1     2     1     0     8   1.558
       223.896833      131.969615       17.309200     1     3     1     0     5   1.558
         8.535215      272.669176       14.099200     1     0     1     0     4   1.558
        94.594124      252.114577       90.455193     1     4     3     0     5   1.558
        68.865616      212.896141      113.767197     1     3     4     0     8   1.558
       138.068959      265.211476       23.849200     1     0     3     0     2   1.558
       195.862384       68.625441       17.683201     1     0     0     0     1   1.560
        38.503645       90.844414       10.209200     1     1     2     0     2   1.558
        15.523413        1.381184        7.867200     1     1     0     0     8   1.558
        88.698627      260.433098       63.633198     1     3     4     0     4   1.558
       200.883133       59.642798       15.129200     1     1     2     0     8   1.558
       194.133984       36.572105      108.573197     1     1     6     0     7   1.558
       175.680019      134.026660       23.241198     1     3     4     0     8   1.558
       276.753432       62.887049       36.909199     1     1     2     0     8   1.558
        18.818406       31.406906        8.561200     1     0     2     0     2   1.558
       128.315988      100.306312       30.267199     1     2     2     0     7   1.558
       102.721268       73.676294       39.747201     1     0     2     0     4   1.558
       251.502731      197.973005       38.711201     1     3     4     0     3   1.558
       172.265867      208.075421      130.103204     1     4     3     0     6   1.558
       247.402098      118.165456        8.001200     1     1     1     0     8   1.558
        89.095759      260.794450       84.229203     1     4     3     0     7   1.558
        52.528454      115.943505       11.259200     1     1     0     0     8   1.558
       295.856853      118.100553       46.789201     1     3     4     0     6   1.558
       203.787311       92.727795      107.371201     1     3     4     0     6   1.558
       186.402085      177.913335      163.529198     1     3     4     0     2   1.558
       255.154258       59.889391       29.565200     1     3     2     0     4   1.558
       254.973388      183.623531       64.427201     1     5     2     0     8   1.558
       185.388878      279.989770       64.959203     1     4     3     0     8   1.558
       151.383269      283.849761       25.351201     1     3     3     0     7   1.558
       196.869774      136.728631        8.989200     1     0     1     0     1   1.558
       119.511519       28.788727       36.695199     1     6     1     0     7   1.558
       162.724240       27.466594       96.761193     1     0     0     0     4   1.560
       250.132010       67.828937       48.745198     1     3     4     0     1   1.558
       135.984187       73.647049       13.881200     1     3     1     0     8   1.558
       222.420511      142.768720       64.151200     1     3     4     0     4   1.558
        41.421171      233.250495      107.727196     1     5     1     0     5   1.558
        65.371443      218.879070       54.537198     1     4     3     0     8   1.558
       115.717387      221.392665       46.369199     1     3     4     0     5   1.558
       264.268869      286.424795       23.899199     1     2     4     0     6   1.558
       180.365128      202.700436       33.085200     1     2     3     0     1   1.558
       252.640810      280.366690        8.361200     1     0     1     0     5   1.558
       287.783622      101.921337       65.995202     1     6     1     0     4   1.558
       112.874595      134.656921       55.107198     1     5     2     0     7   1.558
       195.321269      292.830514       64.877202     1     4     0     0     5   1.558
       169.901500      262.717416       19.169200     1     2     2     0     2   1.558
       105.872279       44.690985       53.577199     1     2     5     0     1   1.558
       204.924263      100.052571       36.567200     1     3     4     0     8   1.558
       217.222547        6.710196       14.159867     1     1     0     0     4   1.558
        76.718154       16.815463       98.571206     1     4     3     0     3   1.558
        92.267720       95.843808      106.179200     1     2     6     0     3   1.558
       166.218579      218.879188       60.389203     1     4     3     0     6   1.558
        50.612087      288.454600       47.497201     1     1     6     0     8   1.558
       214.336449        9.413097       41.913201     1     5     2     0     6   1.558
        95.035510      258.900795       37.953202     1     3     4     0     7   1.558
       280.102215      161.945249       36.243199     1     5     2     0     5   1.558
       277.228190      243.180350        9.137200     1     0     0     0     6   1.560
       179.049098      259.424348       33.851201     1     2     5     0     4   1.558
       233.311742      227.673239       16.771200     1     1     2     0     5   1.558
        10.227951      213.583260      176.121209     1     4     3     0     2   1.558