ITEM: TIMESTEP
0
ITEM: NUMBER OF ATOMS
         930
ITEM: BOX BOUNDS pp pp pp
  0.0000000E+00   300.000000000000     
  0.0000000E+00   300.000000000000     
  0.0000000E+00   1000.00000000000     
ITEM: ATOMS x y z f1 f2 f3 f4 orient radius
       281.564030      204.718412      109.887200     1     1     6     0     6   1.558
       168.513810      157.936693       73.225198     1     2     5     0     5   1.558
       119.511519       28.788727       36.695199     1     3     4     0     3   1.558
        87.260016       31.647253       32.485200     1     2     3     0     5   1.558
       137.965777      164.328421       27.165200     1     2     5     0     8   1.558
       228.969777       68.816112       46.589200     1     2     5     0     5   1.558
       186.395909      158.514519       53.709203     1     0     3     0     2   1.558
       144.530357       88.643109       58.327203     1     4     3     0     5   1.558
       145.313471      293.111156       21.653199     1     6     1     0     3   1.558
       165.138644      228.876194      192.079201     1     5     2     0     5   1.558
        40.803301      116.503860       70.325204     1     3     4     0     1   1.558
       137.460709      238.931414       24.647200     1     2     5     0     7   1.558
       204.588203      108.840643       19.673199     1     1     0     0     3   1.558
       218.185694       26.194990       51.935200     1     4     3     0     2   1.558
        14.313604      273.217075       33.917199     1     4     3     0     5   1.558
       126.511242       56.167435       26.647200     1     4     3     0     2   1.558
       121.954961      117.630208       66.743203     1     3     4     0     3   1.558
       209.872067      165.026649       40.245202     1     5     3     0     6   1.558
       197.198190       25.345534      119.427193     1     5     2     0     4   1.558
       135.744918      205.851017       12.197200     1     4     3     0     4   1.558
       168.835895      189.026266      107.003197     1     2     5     0     4   1.558
       110.801101      143.104682       44.337201     1     3     4     0     5   1.558
       161.999272      282.148576       35.551202     1     5     2     0     3   1.558
       170.942889      189.701069       68.395196     1     2     5     0     1   1.558
       175.680019      134.026660       23.241198     1     5     2     0     4   1.558
       128.409177      121.376115      177.827187     1     5     2     0     4   1.558
       168.209390      177.216972       46.973390     1     4     3     0     8   1.558
         8.143476       86.954051       57.433198     1     3     4     0     1   1.558
       121.837712      210.990294       34.261201     1     6     1     0     2   1.558
       172.241146       95.271688       19.539199     1     3     3     0     2   1.558
       276.753432       62.887049       36.909199     1     2     5     0     2   1.558
        59.073933       46.976295       19.249200     1     4     3     0     8   1.558
       186.212677      244.838573       73.847199     1     4     3     0     6   1.558
       116.908812      237.770823       27.029198     1     2     5     0     6   1.558
       140.235191       47.256771       57.323197     1     5     2     0     3   1.558
       190.992737      230.257560       34.117200     1     2     5     0     7   1.558
       164.506996      221.086259       22.027200     1     4     1     0     4   1.558
       153.154438      257.155594       31.627200     1     6     1     0     8   1.558
       268.960674       45.755582       12.887200     1     0     2     0     2   1.558
        89.095759      260.794450       84.229203     1     6     1     0     7   1.558
        82.150506       94.635412       37.299198     1     5     2     0     6   1.558
       215.081461      202.474507       34.655202     1     5     2     0     2   1.558
       139.435539       19.272673       32.997201     1     3     4     0     8   1.558
        66.973208      249.746514       10.993200     1     3     3     0     2   1.558
       280.144559      110.785433       59.373200     1     4     3     0     8   1.558
       180.278103      202.899230       33.148200     2     5     7     0     3   1.963
       210.389678      133.271574       39.823201     1     4     3     0     2   1.558
       194.794561      299.751585       22.021201     1     5     2     0     8   1.558
        55.132866      276.322670       19.893201     1     0     0     0     3   1.560
       261.360231       58.653785       81.475198     1     4     4     0     3   1.558
       287.414030      138.214903       31.987199     1     6     1     0     1   1.558
       211.778548      133.705315       20.447200     1     3     4     0     5   1.558
       204.924263      100.052571       36.567200     1     4     3     0     8   1.558
       212.389415      209.845822       43.591202     1     6     1     0     4   1.558
       292.137337      158.733607       13.575200     1     3     4     0     4   1.558
        29.525839      291.487831       38.771199     1     1     6     0     2   1.558
        46.359027       71.099022       49.283200     1     5     2     0     8   1.558
         9.947782      257.454600       96.929200     1     2     5     0     6   1.558
        92.267720       95.843808      106.179200     1     6     1     0     4   1.558
         5.310291      140.484859        9.309200     1     1     3     0     2   1.558
       191.482842       97.658991       29.711200     1     3     1     0     1   1.558
       105.609350      269.676258       78.455201     1     4     3     0     2   1.558
       164.828597      209.109026       19.557200     1     3     4     0     7   1.558
       162.160760      129.421226       67.827203     1     3     4     0     7   1.558
       250.139425      124.093130       66.131196     1     5     2     0     5   1.558
       259.864615       40.995417      149.743203     1     4     3     0     5   1.558
       287.783622      101.921337       65.995202     1     2     5     0     7   1.558
       244.467695      209.619468       46.602532     1     3     4     0     4   1.558
       268.776517      174.468202       18.831200     1     0     1     0     6   1.558
       127.674972       37.353650       20.375199     1     3     4     0     7   1.558
       183.089359       72.775537       42.181203     1     4     3     0     6   1.558
       174.039807      167.534312       45.905198     1     3     4     0     7   1.558
       269.384126        3.950698       56.477200     1     3     4     0     2   1.558
       180.787745      227.062550       18.641200     1     2     5     0     2   1.558
       259.080485      255.579946       18.939200     1     2     4     0     1   1.558
        69.123469       90.432032        8.829866     1     0     0     0     8   1.560
       190.256539      290.650202       47.091202     1     0     0     0     8   1.560
       133.198233       27.382114       23.835200     1     2     5     0     2   1.558
       289.880193       92.530369       71.439202     1     3     4     0     1   1.558
       104.943512      157.768647       13.307200     1     3     4     0     5   1.558
        46.815127      198.769583       43.159203     1     5     2     0     1   1.558
        92.539816       15.998413       42.459203     1     1     1     0     4   1.558
       237.572656      223.671161       50.929200     1     4     3     0     6   1.558
       278.874970      149.225824       50.563203     1     5     2     0     5   1.558
       106.292883      162.558381       64.245202     1     5     2     0     8   1.558
       205.353925       35.990384       22.993199     1     5     2     0     2   1.558
       148.722406      240.985541       21.841201     1     2     5     0     2   1.558
        53.344543        3.376560       66.651204     1     4     3     0     4   1.558
        47.240322      209.750047       66.083199     1     2     5     0     4   1.558
       261.432761       81.325085       50.869199     1     5     2     0     4   1.558
       283.636374       77.402094       81.747201     1     3     4     0     3   1.558
       203.787311       92.727795      107.371201     1     5     2     0     7   1.558
       166.014289      265.050790       17.465200     1     3     4     0     2   1.558
       214.183262        2.261138       78.261201     1     6     1     0     1   1.558
       290.698033      268.771860       20.419200     1     3     3     0     4   1.558
       255.729398      152.136659       23.169200     1     1     0     0     3   1.558
       154.042704      275.254442       10.687200     1     5     2     0     4   1.558
        83.598705      151.531280       24.673201     1     0     6     0     2   1.558
       114.967484      200.773429       40.245202     1     5     2     0     7   1.558
       169.555497       82.534018       52.209203     1     6     1     0     5   1.558
        51.351140       50.300183       34.367200     1     1     4     0     5   1.558
         6.049563      250.392873       62.265198     1     5     2     0     3   1.558
       204.331638      124.341444       72.307198     1     2     5     0     1   1.558
       255.229933        0.824024        7.413200     1     0     4     0     2   1.558
       227.139886       38.511804        7.909200     1     3     4     0     7   1.558
        81.331350      293.883152       12.491200     1     1     0     0     8   1.558
       161.635008      161.793321       35.101201     1     2     5     0     4   1.558
       261.926051       62.988576       27.121201     1     2     1     0     7   1.558
        31.537813       32.954361       41.647198     1     3     4     0     1   1.558
        58.895963      260.238713       28.193200     1     4     2     0     2   1.558
       224.507227       80.263952       10.471200     1     3     2     0     4   1.558
       151.449687      164.370684       28.697200     1     3     4     0     4   1.558
        30.581301      232.839659       56.703198     1     4     3     0     3   1.558
       100.069558        6.676644       10.295200     1     0     1     0     4   1.558
       118.064787       21.373723      172.503197     1     4     3     0     3   1.558
       211.592048      191.581665       16.523200     1     4     3     0     5   1.558
       230.881232      193.364008       28.551200     1     3     4     0     7   1.558
       154.138381      160.283742       28.631202     1     3     4     0     6   1.558
        19.613656       55.083908       45.367200     1     3     3     0     6   1.558
       152.496655      126.813685       67.853196     1     5     2     0     5   1.558
       164.051377      201.806349       77.561196     1     3     4     0     7   1.558
        69.550150      199.486845       28.385866     1     4     2     0     3   1.558
       233.834949       12.214305        8.233200     1     1     2     0     5   1.558
       297.036491       42.366908       38.953198     1     5     2     0     2   1.558
       243.159320      162.423556       42.823197     1     3     4     0     8   1.558
       189.174886       99.361837       76.903199     1     4     3     0     4   1.558
        17.592594      230.241216       44.523202     1     3     4     0     2   1.558
       196.099548        5.303433        6.697200     1     0     1     0     5   1.558
       273.400825      224.634738       41.643197     1     5     2     0     6   1.558
       246.583876      165.837665       57.327199     1     4     3     0     6   1.558
       160.630841      103.892401       14.318058     1     4     3     0     5   1.558
       235.089743      266.384833       55.917199     1     6     1     0     4   1.558
        87.955244       44.139289       41.459199     1     4     3     0     8   1.558
       283.147553      210.345238       47.073201     1     3     4     0     5   1.558
       176.014127       72.589678       82.103204     1     5     2     0     6   1.558
       257.992716      259.077961       93.853196     1     5     2     0     5   1.558
       297.063319        4.087352       14.857199     1     3     0     0     8   1.558
       140.263908      109.677825       67.599198     1     2     5     0     6   1.558
       111.139954      167.329893       27.271199     1     4     3     0     8   1.558
        46.189070      146.715177       27.919202     1     3     4     0     4   1.558
        62.086908       74.228794       28.337201     1     2     5     0     4   1.558
       148.730905      283.005195      115.437203     1     4     3     0     2   1.558
       290.989221      222.622305       51.887200     1     4     2     0     2   1.558
       279.361371      151.129443       69.991204     1     2     5     0     1   1.558
       111.352801       69.674507       19.583201     1     2     4     0     8   1.558
        38.503645       90.844414       10.209200     1     3     4     0     2   1.558
        17.680229      236.812967       20.097199     1     2     5     0     6   1.558
       265.549352       71.259962       79.875199     1     5     2     0     2   1.558
       203.805753      130.932537       37.635201     1     4     3     0     7   1.558
       275.870312       40.718306       60.929200     1     3     3     0     8   1.558
        18.317129       33.450309       29.281201     1     3     4     0     8   1.558
       291.497115      243.910299       12.325200     1     1     6     0     5   1.558
        76.289716      186.177363       59.593201     1     4     3     0     4   1.558
        25.469841       44.824367       72.263200     1     2     5     0     7   1.558
       108.676266      201.226061       10.197200     1     3     3     0     4   1.558
       197.928079       73.215887       77.993195     1     2     5     0     2   1.558
       258.782878      236.274550       16.051200     1     2     5     0     2   1.558
       264.392066      105.318482       32.453200     1     5     2     0     4   1.558
       262.363177       12.831044       15.045200     1     1     1     0     5   1.558
        70.733100       74.356135       14.975200     1     1     6     0     7   1.558
        10.227951      213.583260      176.121209     1     5     2     0     8   1.558
        54.031764      104.623391       34.691199     1     5     2     0     3   1.558
       222.420511      142.768720       64.151200     1     4     3     0     7   1.558
        49.060391      173.701279       99.625199     1     4     3     0     2   1.558
       239.145267       40.249209       42.545197     1     3     4     0     4   1.558
       145.825384      180.023712       88.819199     1     5     2     0     4   1.558
       195.862384       68.625441       17.683201     1     4     3     0     3   1.558
        39.398586      282.245467       16.723201     1     4     3     0     4   1.558
       258.132966      280.317518       88.813203     1     3     4     0     7   1.558
       103.625348       17.860123       39.011197     1     4     3     0     5   1.558
        50.446654      154.693358       17.369200     1     2     1     0     8   1.558
       201.132001      192.278723        7.433200     1     1     0     0     5   1.558
       278.687297       25.183730       20.793198     1     3     4     0     8   1.558
        10.752876      217.620096       67.347199     1     4     3     0     3   1.558
       124.052593      140.586784       21.743201     1     4     3     0     4   1.558
       184.434164      265.034250       65.771199     1     4     3     0     4   1.558
        39.156298       64.503848       23.099200     1     5     2     0     8   1.558
        50.526334      105.813748       49.485200     1     4     3     0     3   1.558
        24.298746      278.215767       22.385199     1     4     3     0     4   1.558
       102.356220      219.017926       37.677197     1     5     2     0     4   1.558
       277.558978       21.187981       68.931199     1     5     2     0     7   1.558
        47.129080      154.716680       51.269200     1     5     2     0     8   1.558
       235.883889       50.327467       73.231194     1     4     3     0     8   1.558
       155.513951      128.272487       86.583199     1     4     3     0     3   1.558
       134.400736      285.279637       28.895201     1     4     3     0     5   1.558
         4.936124       54.252760       11.561200     1     3     4     0     5   1.558
       179.228255      243.891732       39.599198     1     2     5     0     8   1.558
       249.480667      196.163292       35.821198     1     4     3     0     4   1.558
       261.406464      140.764344       26.251200     1     4     3     0     6   1.558
       126.101051      250.688754       60.553200     1     5     2     0     3   1.558
       187.059397       60.744242       25.033200     1     6     1     0     3   1.558
       149.779884      163.614672      114.943200     1     4     3     0     5   1.558
         6.963717      192.863133       15.419200     2     5     7     0     6   1.963
        43.452052       50.094614       23.759202     1     0     1     0     1   1.558
       159.932094        6.097298       17.863867     1     2     4     0     4   1.558
       128.127820      226.491966       60.389203     1     3     4     0     8   1.558
        46.095725      215.954757       74.495202     1     4     3     0     6   1.558
       286.589549      292.931612       16.301201     1     3     3     0     8   1.558
       264.195436       43.155118       11.019200     1     3     4     0     7   1.558
       236.865217      255.829515       17.617201     1     1     1     0     2   1.558
       125.075803      204.432073       65.997197     1     1     6     0     6   1.558
       167.500512      176.215632       74.621201     1     3     4     0     8   1.558
       222.334008      194.204289       53.769200     1     4     3     0     8   1.558
        86.524499        0.955520        7.783200     1     2     1     0     4   1.558
       216.139274      126.723329       61.447198     1     5     2     0     7   1.558
       295.427901      213.632596       34.041199     1     3     4     0     6   1.558
       169.352786       38.938765       89.503197     1     5     2     0     2   1.558
        31.533848      159.069402       42.459203     1     5     2     0     5   1.558
       137.693070      274.817312       37.327199     1     5     2     0     4   1.558
         4.762423      169.410877       11.853200     1     2     0     0     5   1.558
       211.106738      119.517112       55.703198     1     4     3     0     1   1.558
       278.792013      184.577938       41.133198     1     3     4     0     6   1.558
       221.940735       21.937186       69.991204     1     5     2     0     6   1.558
       199.857374      139.965752       57.395200     1     3     4     0     8   1.558
       101.741696      194.965987       15.041200     1     6     1     0     1   1.558
        41.898193      186.513561       56.557202     1     5     2     0     6   1.558
        69.272484      200.474116       39.945199     1     2     5     0     4   1.558
        11.524221       96.920750       81.605202     1     2     5     0     7   1.558
        77.772042      259.429035       11.867200     1     2     3     0     1   1.558
        79.859570       60.695978        6.349200     1     0     0     0     8   1.560
       284.494910      247.103161       20.169200     1     6     1     0     7   1.558
       162.800399       93.707489       25.445201     1     6     1     0     6   1.558
        97.947429       84.218981       75.771195     1     2     1     0     1   1.558
       180.507921       57.107455       35.139199     1     4     3     0     1   1.558
       241.794484      177.873738       79.183198     1     5     2     0     7   1.558
       261.100053       33.345505       74.859200     1     4     3     0     2   1.558
       299.754955      239.592923       68.169198     1     3     4     0     8   1.558
       256.827672      121.158515       88.625199     1     3     3     0     4   1.558
       205.236369        9.125001      109.929200     1     5     2     0     8   1.558
        72.232049      222.755707       52.523198     1     4     3     0     4   1.558
       145.574404      188.141467       51.105202     1     3     4     0     2   1.558
       206.080479      261.693362       55.519200     1     6     1     0     7   1.558
         7.413462      183.122583       87.185204     1     1     6     0     6   1.558
       223.993466      268.920346        6.943200     1     3     2     0     4   1.558
       202.066256      238.597274       54.329201     1     5     2     0     7   1.558
        64.864166        1.458082       21.007201     1     3     4     0     2   1.558
       219.306224       94.824117       18.403200     1     4     3     0     3   1.558
        67.887660      297.512107       24.973201     1     3     4     0     5   1.558
       282.475406       60.189152       46.807198     1     4     3     0     5   1.558
         8.535215      272.669176       14.099200     1     4     3     0     1   1.558
        67.172490      221.892507       11.431200     1     3     4     0     8   1.558
        48.201012       54.389021       37.081200     1     3     4     0     5   1.558
       119.722216      218.560725       29.060532     1     6     1     0     3   1.558
       146.284210      215.822240       42.019200     1     5     1     0     3   1.558
       206.414003        0.642468       58.683202     1     3     4     0     6   1.558
         8.653927      240.697236       32.165200     1     4     3     0     3   1.558
        83.906295       40.093273       32.187201     1     4     3     0     2   1.558
        78.057637      258.830162       43.485200     1     3     4     0     6   1.558
        74.017551      101.071706       13.031200     1     0     0     0     6   1.560
       263.895385      194.290361      149.981194     1     5     2     0     2   1.558
       291.101129       37.945348       11.273200     1     4     3     0     4   1.558
       270.982072      187.229331       44.349202     1     2     5     0     5   1.558
       185.594505      118.225373       16.639866     1     2     5     0     4   1.558
       174.313077       70.623716       55.455201     1     4     3     0     2   1.558
        61.990224       35.780445       82.025201     1     3     4     0     4   1.558
       180.835793      262.356839       35.821198     1     2     5     0     4   1.558
       152.907969      129.491132       69.685197     1     3     4     0     4   1.558
         2.702334      220.024620       20.535201     1     1     6     0     7   1.558
       253.833006      225.167420        7.991200     1     0     6     0     8   1.558
       218.343750       34.702350       28.145200     1     4     3     0     1   1.558
       282.282041       11.240828       28.967200     1     6     1     0     4   1.558
       219.377549      229.873038       67.711198     1     2     5     0     7   1.558
       299.414452      165.877134       59.759198     1     4     3     0     7   1.558
        97.289760       27.235970       44.307202     1     2     5     0     3   1.558
       243.316792      189.565456       22.415200     1     6     1     0     2   1.558
       106.052400        5.200540       55.335202     1     6     1     0     4   1.558
        23.090978       26.448481       24.479201     1     4     3     0     8   1.558
        63.753766      276.710008       54.481202     1     5     2     0     6   1.558
       100.853245      194.736972       25.201199     1     0     2     0     1   1.558
       171.738485      137.316106       58.029202     1     4     3     0     4   1.558
       272.362070       33.641091       70.477204     1     3     4     0     7   1.558
       160.724543      216.678573       12.559200     1     0     1     0     2   1.558
       283.921425       33.876916       56.663201     1     5     2     0     2   1.558
        25.985057      221.087724       45.973199     1     3     4     0     2   1.558
       113.895387      163.363842       44.269200     1     1     6     0     3   1.558
       273.375679       41.675292       98.805207     1     3     4     0     2   1.558
       213.804633      267.252186       63.261201     1     2     4     0     1   1.558
       283.337253       75.612095        7.265200     1     0     0     0     5   1.560
       174.778078      101.026436       12.935200     1     0     0     0     7   1.560
        89.009034       47.962702       75.003197     1     1     6     0     8   1.558
        42.228484      255.434408       48.527200     1     4     3     0     7   1.558
       266.358777      288.793294       60.165200     1     5     2     0     3   1.558
        10.745386        4.679306       86.597199     1     2     5     0     5   1.558
         6.593661      109.698368       29.631202     1     4     3     0     4   1.558
        10.860221      282.870898       30.385199     1     3     4     0     6   1.558
       245.452872        8.271247       20.097199     1     5     2     0     7   1.558
        36.665504      260.330240       95.413201     1     4     3     0     8   1.558
       166.218579      218.879188       60.389203     1     3     4     0     1   1.558
       114.160859      228.867667       25.633200     1     3     1     0     5   1.558
       265.710735      224.611436       45.605202     1     4     3     0     1   1.558
        40.161505      161.590643       32.907201     1     3     4     0     2   1.558
       169.420164       29.818237       96.499200     1     4     3     0     7   1.558
        51.460559       77.946814       68.905198     1     3     4     0     7   1.558
        47.755159      163.472403       10.929200     1     1     5     0     8   1.558
       217.222547        6.710196       14.159867     1     5     2     0     3   1.558
       107.101819      112.568294       52.791199     1     2     5     0     7   1.558
       174.166211      173.584373       31.715201     1     2     5     0     2   1.558
        71.060195      244.494390       27.839200     1     3     4     0     7   1.558
       161.173082      156.774374       28.537200     1     4     3     0     7   1.558
       171.011355      289.774698       31.110200     2     7     5     0     4   1.963
       214.336449        9.413097       41.913201     1     2     5     0     4   1.558
       160.584784      104.958154       79.183198     1     4     3     0     2   1.558
       119.721002       81.563305      194.775201     1     0     2     0     5   1.558
         0.197710       20.597332       70.679200     1     5     2     0     2   1.558
       184.764835       18.722165      161.079201     1     0     7     0     8   1.558
       115.751222      136.610343      111.237199     1     3     4     0     7   1.558
        70.962311       82.435244       17.207200     1     2     2     0     8   1.558
       147.897116       90.373769       27.853200     1     4     3     0     8   1.558
        79.145632        2.269938       44.145200     1     6     1     0     6   1.558
        65.371443      218.879070       54.537198     1     2     5     0     7   1.558
       278.108368      162.783566       66.481202     1     1     6     0     1   1.558
       177.239031       30.770757       27.443200     2     7     5     0     5   1.963
       107.239333      277.824530       28.301774     1     3     4     0     3   1.558
       161.669037      162.113628        8.195200     1     1     1     0     4   1.558
       131.795036      148.993043       99.905198     1     6     1     0     2   1.558
       261.729518       39.782458       32.949200     1     4     3     0     4   1.558
         9.284623      197.081084       97.437203     1     1     3     0     4   1.558
        84.649160       89.418693       23.125199     1     3     4     0     3   1.558
        87.521773      130.798227       76.687203     1     3     4     0     8   1.558
       175.914886       44.971134       39.599198     1     3     4     0     6   1.558
       106.990963      109.607522        6.343200     1     3     3     0     2   1.558
        60.728980      283.136042       29.789200     2     2    10     0     1   1.963
       211.448993      261.299388       72.163201     1     3     4     0     5   1.558
       282.577119      216.749540       12.111200     1     3     2     0     2   1.558
       182.283206       48.048935       62.901200     1     4     3     0     5   1.558
       116.989813        8.199541       39.317200     1     5     2     0     6   1.558
         8.365497      280.305796      108.631203     1     3     4     0     5   1.558
       214.256025      199.521685       35.307198     1     3     4     0     4   1.558
       295.718552        7.880168        6.723200     1     1     0     0     5   1.558
       257.349396       15.671539       64.427201     1     5     2     0     8   1.558
       112.464285        0.970127       35.537202     1     7     0     0     1   1.558
        38.037347       64.549985       50.253201     1     3     4     0     2   1.558
        87.243276        7.965028       14.019200     1     3     4     0     2   1.558
       245.343575      268.164665       57.125199     1     4     3     0     6   1.558
         9.644772       13.594892       65.129201     1     5     2     0     8   1.558
       130.424562      142.590723      103.549195     1     4     3     0     1   1.558
       257.969925        4.271007       66.463200     1     2     5     0     7   1.558
        41.421171      233.250495      107.727196     1     2     5     0     4   1.558