ITEM: TIMESTEP
0
ITEM: NUMBER OF ATOMS
         314
ITEM: BOX BOUNDS pp pp pp
  0.0000000E+00   300.000000000000     
  0.0000000E+00   300.000000000000     
  0.0000000E+00   1000.00000000000     
ITEM: ATOMS x y z f1 f2 f3 f4 orient radius
        15.523413        1.381184        7.867200     1     0     0     0     8   1.560
       115.116587      282.038392       39.259198     1     2     2     0     2   1.558
       170.942889      189.701069       68.395196     1     2     1     0     1   1.558
        59.073933       46.976295       19.249200     1     1     5     0     4   1.558
       118.899174      170.830222        7.867200     1     0     1     0     4   1.558
        11.640182       56.249076       79.351205     1     5     2     0     2   1.558
       235.665623      190.750552       14.577201     1     2     0     0     8   1.558
        52.927140      148.378618      103.471200     1     4     3     0     8   1.558
         6.963717      192.863133       15.419200     2     6     5     0     2   1.963
       128.845618       26.855382       60.705201     1     5     2     0     5   1.558
       205.236369        9.125001      109.929200     1     4     3     0     6   1.558
        61.696596       55.199235       35.781201     1     3     3     0     8   1.558
       216.375895       40.262425        6.389200     1     0     2     0     8   1.558
         2.702334      220.024620       20.535201     1     2     2     0     1   1.558
        76.718154       16.815463       98.571206     1     3     4     0     3   1.558
       180.365128      202.700436       33.085200     1     0     1     0     7   1.558
       128.409177      121.376115      177.827187     1     5     2     0     1   1.558
       235.883889       50.327467       73.231194     1     3     4     0     3   1.558
        71.060195      244.494390       27.839200     1     5     2     0     6   1.558
       190.026010       66.161716       78.671204     1     3     4     0     1   1.558
        53.761579       34.046086       30.681201     1     0     2     0     5   1.558
       125.075803      204.432073       65.997197     1     4     3     0     1   1.558
       160.912598       32.951549      109.887200     1     4     3     0     4   1.558
       107.223039      147.836494       31.799201     1     5     2     0     2   1.558
        14.788963       59.475646       15.079200     1     0     0     0     7   1.560
       165.816651      221.451851       64.817200     1     2     5     0     5   1.558
       252.275236       12.262220       11.107200     1     2     0     0     8   1.558
         4.936124       54.252760       11.561200     1     2     2     0     4   1.558
       183.694329      214.226470       24.917199     1     4     1     0     5   1.558
       182.822462      119.369762       14.071200     1     2     5     0     2   1.558
        65.391229       88.271893       37.557198     1     6     1     0     5   1.558
        47.129080      154.716680       51.269200     1     2     5     0     2   1.558
       126.058058       41.662627       42.531201     1     5     1     0     2   1.558
       125.985072      212.590005       16.173200     1     1     3     0     6   1.558
       290.419398       57.252114       30.397200     1     0     0     0     1   1.560
        52.528454      115.943505       11.259200     1     0     0     0     8   1.560
        84.488553      112.148394       34.665200     1     2     0     0     3   1.558
        64.115760       46.465995       67.953202     1     5     2     0     4   1.558
       282.537381       25.435604       23.791199     1     2     3     0     3   1.558
        94.594124      252.114577       90.455193     1     5     2     0     8   1.558
       219.160420      159.613902        9.891200     1     0     0     0     4   1.560
       115.717387      221.392665       46.369199     1     5     2     0     7   1.558
       258.782878      236.274550       16.051200     1     2     2     0     8   1.558
        42.228484      255.434408       48.527200     1     5     2     0     7   1.558
       106.990963      109.607522        6.343200     1     0     0     0     4   1.560
        58.916650       90.369878       69.183198     1     4     3     0     6   1.558
       246.990793       88.714107       39.041199     1     2     5     0     5   1.558
       292.118709       65.109681       52.513200     1     3     4     0     7   1.558
       253.655327      244.955042       44.293198     1     4     3     0     5   1.558
       250.139425      124.093130       66.131196     1     1     3     0     4   1.558
       280.102215      161.945249       36.243199     1     2     2     0     2   1.558
        40.058326       94.347121       10.987200     1     0     1     0     8   1.558
       283.921425       33.876916       56.663201     1     4     3     0     3   1.558
       276.949640      105.515996       13.043200     1     1     2     0     8   1.558
       279.361371      151.129443       69.991204     1     4     3     0     3   1.558
       254.893302       69.664029       12.023200     1     0     0     0     5   1.560
       222.334008      194.204289       53.769200     1     4     3     0     3   1.558
       185.388878      279.989770       64.959203     1     3     4     0     3   1.558
        37.499922      162.061379        6.910533     1     0     1     0     2   1.558
       175.791774       44.844624       45.147198     1     3     4     0     2   1.558
       231.209007      135.235933       10.199200     1     0     1     0     3   1.558
       235.268330      235.497039       39.175202     1     4     3     0     4   1.558
       254.973388      183.623531       64.427201     1     2     5     0     7   1.558
       245.367981       29.163993       30.231200     1     1     1     0     2   1.558
       269.384126        3.950698       56.477200     1     3     4     0     8   1.558
       148.902944       43.298293       56.131200     1     6     1     0     1   1.558
       152.496655      126.813685       67.853196     1     3     4     0     7   1.558
         1.153694      258.393142       71.377206     1     1     0     0     7   1.558
       200.996503      173.324773       15.229200     1     0     3     0     6   1.558
       234.626025      289.010907       55.037202     1     1     2     0     8   1.558
        12.187801       68.970113       41.477200     1     3     4     0     4   1.558
        80.864930      249.506587       22.233201     1     1     0     0     1   1.558
       290.989221      222.622305       51.887200     1     3     4     0     5   1.558
       169.555497       82.534018       52.209203     1     3     3     0     3   1.558
       263.509799       63.406168       32.387200     1     4     3     0     4   1.558
       215.878006      170.996519       22.289199     1     1     2     0     4   1.558
        90.671045      173.771546       59.655202     1     2     5     0     5   1.558
        91.353929      280.280767       89.511201     1     3     4     0     4   1.558
       137.965777      164.328421       27.165200     1     4     3     0     6   1.558
       227.139886       38.511804        7.909200     1     0     0     0     8   1.560
       148.730905      283.005195      115.437203     1     1     6     0     6   1.558
        81.380424      253.894293       52.623200     1     1     6     0     8   1.558
       151.383269      283.849761       25.351201     1     0     1     0     8   1.558
       226.843002       94.078426        8.147200     1     1     0     0     2   1.558
        99.968057      141.979074       83.665200     1     4     3     0     3   1.558
        73.372434      196.228012       48.105199     1     2     1     0     5   1.558
       241.307959      226.214993       28.269200     1     2     3     0     4   1.558
       114.494779      191.705194       19.851201     1     5     1     0     6   1.558
       105.872279       44.690985       53.577199     1     2     1     0     2   1.558
        70.733100       74.356135       14.975200     1     1     1     0     5   1.558
       218.142011      201.201616       38.869202     1     3     1     0     8   1.558
        17.670714      188.533858       11.279200     1     0     2     0     8   1.558
       121.347577      210.178053       54.609200     1     2     5     0     7   1.558
       189.217539      120.971019       34.141200     1     3     4     0     8   1.558
        83.769469      227.187836       44.647202     1     1     0     0     3   1.558
        88.292768      290.479332       99.163193     1     3     4     0     4   1.558
       265.928488      174.705115       22.567199     1     1     0     0     3   1.558
       175.680019      134.026660       23.241198     1     5     2     0     8   1.558
       229.784371      287.766832       40.997201     1     3     4     0     8   1.558
       101.353560       64.980743       44.135201     1     7     0     0     2   1.558
        39.398586      282.245467       16.723201     1     0     2     0     3   1.558
       232.139126      176.510897       41.647198     1     5     2     0     5   1.558
       265.887028      157.505381       73.031205     1     3     4     0     4   1.558
       165.138644      228.876194      192.079201     1     2     5     0     1   1.558
       219.377549      229.873038       67.711198     1     2     5     0     2   1.558
       115.620981      258.777135       50.749200     1     1     2     0     8   1.558
       188.807647      298.670923       71.603204     1     0     1     0     7   1.558
        95.035510      258.900795       37.953202     1     4     2     0     5   1.558
       259.080485      255.579946       18.939200     1     0     1     0     8   1.558
        54.264945       38.243687       47.819199     1     3     4     0     3   1.558
       214.256025      199.521685       35.307198     1     2     4     0     6   1.558
       175.840530      207.801179       21.253199     1     3     4     0     1   1.558
        83.813646      223.306111       45.731202     1     4     3     0     2   1.558
         9.946951      200.385546       40.423199     1     3     4     0     2   1.558
        97.289760       27.235970       44.307202     1     1     3     0     6   1.558
       118.767690       27.765518      121.961198     1     3     4     0     2   1.558
       190.992737      230.257560       34.117200     1     3     4     0     5   1.558
        48.201012       54.389021       37.081200     1     3     4     0     5   1.558
       203.787311       92.727795      107.371201     1     3     4     0     2   1.558
        26.149803        9.417367       12.101200     1     1     0     0     8   1.558
        87.521773      130.798227       76.687203     1     2     0     0     2   1.558
       222.420511      142.768720       64.151200     1     3     4     0     1   1.558
       235.399160      129.679817       26.679200     1     4     3     0     1   1.558
       175.359045      180.455681       21.469199     1     0     1     0     3   1.558
        12.152583      124.593298       16.781200     1     2     1     0     8   1.558
       268.997590       63.971386       60.705201     1     4     3     0     5   1.558
       140.785248       32.485986       10.275200     1     0     0     0     8   1.560
       196.099548        5.303433        6.697200     1     0     1     0     5   1.558
       129.802051       79.948578       28.145200     1     4     3     0     3   1.558
        63.278515      114.779564       41.059201     1     4     2     0     2   1.558
        76.953318       53.790535        9.565200     1     2     1     0     2   1.558
       118.928695      117.553056       47.779198     1     1     2     0     5   1.558
        53.344543        3.376560       66.651204     1     4     3     0     7   1.558
       255.185042       54.363962       68.337205     1     7     0     0     8   1.558
       281.360878      212.038510        8.121200     1     0     0     0     4   1.560
       236.794225      106.864121       38.673424     1     1     2     0     7   1.558
       276.195590       84.769701       58.857198     1     0     7     0     5   1.558
        38.503645       90.844414       10.209200     1     0     1     0     2   1.558
        73.595209       83.089825       42.759198     1     7     0     0     3   1.558
       295.856853      118.100553       46.789201     1     3     4     0     1   1.558
       172.265867      208.075421      130.103204     1     3     4     0     6   1.558
       213.411216      236.444335        6.433200     1     1     0     0     5   1.558
        97.687130       37.937124       36.785199     1     3     4     0     3   1.558
       233.116490      190.318527       40.565202     1     2     3     0     5   1.558
        23.321639      198.851888       93.081200     1     7     0     0     5   1.558
       211.592048      191.581665       16.523200     1     2     4     0     4   1.558
       261.406464      140.764344       26.251200     1     1     5     0     4   1.558
       263.895385      194.290361      149.981194     1     5     2     0     8   1.558
        55.323970       34.651215       13.867200     1     4     1     0     8   1.558
       159.052207      259.091057       38.449200     1     2     5     0     5   1.558
       289.107868       24.788140       34.893199     1     3     3     0     8   1.558
       247.402098      118.165456        8.001200     1     0     1     0     8   1.558
        50.612087      288.454600       47.497201     1     3     4     0     5   1.558
       233.311742      227.673239       16.771200     1     1     1     0     6   1.558
       185.594505      118.225373       16.639866     1     0     1     0     8   1.558
       156.460577      217.558067       33.723199     1     2     3     0     4   1.558
        72.106223      209.218900       40.703198     1     3     4     0     4   1.558
       296.605915        6.760063       45.373200     1     6     1     0     5   1.558
        88.698627      260.433098       63.633198     1     3     4     0     5   1.558
       259.923478       84.106572       31.943200     1     4     2     0     8   1.558
       254.657483      168.321167       31.917199     1     3     4     0     7   1.558
       119.511519       28.788727       36.695199     1     4     3     0     1   1.558
       208.382055       35.944061       44.303200     1     5     2     0     1   1.558
       214.336449        9.413097       41.913201     1     1     2     0     7   1.558
        79.767774      235.536572       54.743199     1     0     2     0     2   1.558
        73.649658      228.644162       97.807198     1     6     1     0     8   1.558
       101.999970       28.409271       44.635197     1     2     5     0     5   1.558
       104.364031      222.298325       47.533200     1     1     6     0     1   1.558
       211.330834      289.464437       73.273194     1     4     3     0     4   1.558
       247.332632      298.688981       56.515202     1     5     2     0     8   1.558
       155.765320      140.126463       30.805199     1     0     1     0     1   1.558
        51.460559       77.946814       68.905198     1     4     3     0     6   1.558
       129.774622       62.975739       40.055199     1     2     5     0     8   1.558
       186.402085      177.913335      163.529198     1     2     5     0     7   1.558
       158.465800      141.926026       29.845200     1     6     1     0     2   1.558
       164.051377      201.806349       77.561196     1     3     4     0     7   1.558
       189.199376      166.268962       18.691200     1     3     4     0     8   1.558
         5.542113        1.590912       35.709199     1     2     5     0     6   1.558
       275.488185      276.478012       14.041199     1     1     0     0     5   1.558
        38.519585      172.421047       17.885200     1     1     0     0     8   1.558
       171.715778      151.822155       94.675195     1     4     3     0     4   1.558
       264.268869      286.424795       23.899199     1     2     5     0     6   1.558
       161.569589       54.229543       88.467202     1     5     2     0     4   1.558
       255.393196      152.417459       13.043200     1     2     0     0     5   1.558
         4.817068      182.014653       28.769200     1     4     3     0     4   1.558
        88.434842        9.864416       24.889201     1     2     5     0     6   1.558
        31.957802      191.070460       70.763200     1     1     1     0     1   1.558
       164.828597      209.109026       19.557200     1     0     0     0     4   1.560
       239.095616      188.062563       14.243200     1     2     0     0     2   1.558
        64.864166        1.458082       21.007201     1     0     1     0     4   1.558
        21.815080       14.458065       12.035200     1     1     0     0     8   1.558
       232.929361      276.300374       32.093201     1     1     5     0     7   1.558
        39.152622       13.795126       23.949200     1     5     2     0     8   1.558
        53.946024       46.363039       39.173199     1     3     3     0     8   1.558
        17.445212      287.849673       38.057202     1     3     4     0     4   1.558
       213.584361       87.052534       18.641200     1     2     4     0     2   1.558
       176.014127       72.589678       82.103204     1     4     3     0     1   1.558
        84.276364      190.798019       62.843198     1     1     3     0     5   1.558
        67.206766      177.429148       73.137200     1     6     1     0     6   1.558
       257.905418      290.331458       34.971200     1     3     4     0     6   1.558
       132.834469       38.883727       12.431200     1     0     1     0     4   1.558
       144.025012      155.036555       49.891198     1     5     2     0     3   1.558
       183.145056      164.427590       16.615201     1     3     0     0     8   1.558
        48.239467      203.217710       10.929200     1     1     2     0     7   1.558
       255.776229       92.532353       96.197205     1     2     5     0     5   1.558
       185.376227      184.684565       49.283200     1     0     0     0     7   1.560
       181.375790       58.107903       28.877200     1     3     2     0     7   1.558
       267.561787      221.332619       58.223199     1     4     3     0     5   1.558
        69.159766       16.344384       92.533204     1     3     4     0     6   1.558
       273.400825      224.634738       41.643197     1     2     5     0     5   1.558
        34.571035       49.494934       68.947205     1     4     3     0     4   1.558
       197.467215      198.813413       15.855201     1     0     0     0     7   1.560
       287.783622      101.921337       65.995202     1     4     3     0     1   1.558
        44.222221      228.538228       50.441201     1     3     4     0     1   1.558
        78.057637      258.830162       43.485200     1     4     3     0     2   1.558
        91.156160      244.383509       10.313200     1     1     0     0     2   1.558
       108.617237       20.765340       14.621199     1     2     1     0     4   1.558
       216.325016       61.357192       46.097199     1     3     4     0     5   1.558
       125.141344      238.601144       19.257201     1     2     5     0     8   1.558
        96.316587      100.167095       58.351201     1     2     4     0     7   1.558
       281.216568       41.033305       27.327201     1     2     2     0     5   1.558
       162.176761      107.004395        7.355200     1     2     1     0     8   1.558
       206.080479      261.693362       55.519200     1     5     2     0     3   1.558
         6.741775      171.061487        9.815200     1     0     0     0     6   1.560
       225.203186      183.159276       53.709203     1     5     2     0     1   1.558
       291.101129       37.945348       11.273200     1     2     0     0     5   1.558
        41.421171      233.250495      107.727196     1     4     3     0     3   1.558
       208.827944      208.757925        7.221200     1     0     1     0     8   1.558
       250.132010       67.828937       48.745198     1     2     5     0     5   1.558
       117.473180      290.735621       29.071200     1     3     4     0     5   1.558
        14.723698      171.298948       15.887199     1     3     2     0     2   1.558
        64.663364      293.569171       16.659199     1     3     3     0     1   1.558
       196.292563       74.394946       13.503200     1     1     0     0     8   1.558
        18.095175        1.950649       43.583199     1     3     4     0     1   1.558
       204.331638      124.341444       72.307198     1     3     3     0     4   1.558
        40.706066      122.763781       28.493199     1     0     0     0     5   1.560
       290.138561       63.499628       33.441201     1     5     2     0     7   1.558
       135.759050      166.511033       66.365197     1     4     3     0     5   1.558
       132.289221        4.714382       96.025201     1     4     3     0     4   1.558
       162.124502      281.511110       43.011201     1     4     2     0     7   1.558
       287.380829       19.432994      144.615197     1     2     5     0     7   1.558
        63.693249       53.516721       45.043198     1     4     1     0     3   1.558
        48.949195      213.720864       49.931203     1     3     4     0     2   1.558
       194.133984       36.572105      108.573197     1     4     3     0     3   1.558
       168.835895      189.026266      107.003197     1     2     5     0     2   1.558
       152.907969      129.491132       69.685197     1     1     6     0     2   1.558
       224.760669      259.651279      122.559197     1     2     5     0     4   1.558
        65.079571      120.406794       20.643201     1     3     4     0     8   1.558
        92.267720       95.843808      106.179200     1     5     2     0     2   1.558
       220.739835      104.471957       19.689200     1     3     2     0     5   1.558
       277.968509      175.393964       74.063195     1     1     6     0     1   1.558
        90.210634      250.105839       23.099200     1     0     1     0     7   1.558
        95.455857       31.257433       18.465200     1     3     2     0     2   1.558
         2.250012      230.944800       59.223202     1     2     0     0     4   1.558
        70.070624      294.921004       86.075204     1     3     4     0     7   1.558
        54.117749      286.627804       85.087205     1     3     4     0     5   1.558
        47.755159      163.472403       10.929200     1     0     0     0     7   1.560
       165.201434      195.528057       11.485200     1     1     1     0     5   1.558
       139.594018      152.507754       80.333199     1     4     3     0     1   1.558
       274.398833      135.184438       36.389203     1     4     3     0     4   1.558
       168.830911      229.506347       43.907201     1     2     5     0     6   1.558
       169.420164       29.818237       96.499200     1     5     2     0     2   1.558
        18.818406       31.406906        8.561200     1     0     1     0     2   1.558
       146.284210      215.822240       42.019200     1     4     3     0     7   1.558
       148.809909       74.336527       98.107201     1     4     3     0     2   1.558
       146.835590       16.052664       49.737199     1     4     3     0     3   1.558
       169.901500      262.717416       19.169200     1     0     0     0     2   1.560
       284.494910      247.103161       20.169200     1     0     0     0     8   1.560
       264.803963      146.952173       69.093194     1     4     3     0     3   1.558
       289.880193       92.530369       71.439202     1     6     1     0     1   1.558
        89.095759      260.794450       84.229203     1     5     2     0     2   1.558
       278.874970      149.225824       50.563203     1     3     4     0     5   1.558
       232.672881      229.749761       31.009200     1     3     4     0     4   1.558
       141.533513      172.283563       19.789201     1     0     0     0     6   1.560
        21.116733      120.923791       19.893201     1     0     0     0     8   1.560
       122.637903       22.858560       34.487199     1     6     1     0     6   1.558
       222.282295      222.052691      104.211205     1     4     3     0     4   1.558
       137.693070      274.817312       37.327199     1     5     2     0     8   1.558
       144.079061      105.477488       60.697201     1     1     6     0     3   1.558
       159.320742      195.136922       48.223202     1     4     3     0     5   1.558
       223.896833      131.969615       17.309200     1     3     0     0     2   1.558
       134.400736      285.279637       28.895201     1     0     0     0     3   1.560
        10.752876      217.620096       67.347199     1     4     3     0     1   1.558
       174.681162      219.933827       45.367200     1     3     4     0     8   1.558
        81.353068      243.939784       42.143201     1     2     4     0     8   1.558
       195.862384       68.625441       17.683201     1     0     0     0     1   1.560
        30.596108      110.099000       24.207200     1     0     0     0     1   1.560
        14.497016      177.791681       87.909196     1     5     2     0     6   1.558
       179.049098      259.424348       33.851201     1     1     6     0     1   1.558
       173.468672      195.740984       24.215201     1     0     0     0     2   1.560
       264.039543       90.996793       38.727200     1     4     2     0     4   1.558
        35.228566      243.607068       26.871199     1     0     1     0     5   1.558
       107.447197      263.970627       75.331200     1     0     1     0     6   1.558
       114.623276      177.816631       67.467194     1     5     2     0     8   1.558
       251.502731      197.973005       38.711201     1     1     6     0     7   1.558
       270.568100      106.144591       88.867203     1     1     6     0     3   1.558
       149.353837       47.523329       62.985200     1     2     5     0     7   1.558
       113.210854      252.978605       23.813201     1     1     0     0     2   1.558
       111.495211      127.052084       21.627200     1     7     0     0     3   1.558
       164.119335      204.847229       23.281199     1     1     1     0     8   1.558
         9.644772       13.594892       65.129201     1     3     4     0     8   1.558
        81.659756       95.440754       37.119199     1     4     3     0     4   1.558
       130.123919      175.107607       24.755200     1     3     0     0     1   1.558
       243.316792      189.565456       22.415200     1     1     1     0     2   1.558
        39.031881      279.665665       66.205205     1     4     3     0     4   1.558
         8.143476       86.954051       57.433198     1     4     1     0     4   1.558
       218.343750       34.702350       28.145200     1     4     3     0     5   1.558
       128.127820      226.491966       60.389203     1     1     3     0     3   1.558
       282.451286      240.486175       22.013200     1     4     3     0     2   1.558
       106.919850       19.889238       46.097199     1     5     2     0     6   1.558
        24.396426       25.056381       16.575200     1     0     0     0     7   1.560
       211.778548      133.705315       20.447200     1     3     3     0     7   1.558
       135.984187       73.647049       13.881200     1     2     1     0     5   1.558
       114.760245       17.417750      139.655205     1     1     7     0     5   1.558
