ITEM: TIMESTEP
0
ITEM: NUMBER OF ATOMS
         593
ITEM: BOX BOUNDS pp pp pp
  0.0000000E+00   300.000000000000     
  0.0000000E+00   300.000000000000     
  0.0000000E+00   1000.00000000000     
ITEM: ATOMS x y z f1 f2 f3 f4 orient radius
       247.207113       17.982821       17.193200     1     2     4     0     4   1.558
       206.080479      261.693362       55.519200     1     2     5     0     8   1.558
       129.802051       79.948578       28.145200     1     4     3     0     7   1.558
         6.377204      181.076772       52.777200     1     4     3     0     7   1.558
       292.137337      158.733607       13.575200     1     3     0     0     1   1.558
       252.640810      280.366690        8.361200     1     0     2     0     3   1.558
       240.466778      169.892688      115.925202     1     5     2     0     5   1.558
       247.402098      118.165456        8.001200     1     2     1     0     4   1.558
       214.256025      199.521685       35.307198     1     4     3     0     1   1.558
       134.400736      285.279637       28.895201     1     6     1     0     8   1.558
       128.127820      226.491966       60.389203     1     5     2     0     3   1.558
        39.014264       57.680889       31.085200     1     4     2     0     5   1.558
       224.760669      259.651279      122.559197     1     3     4     0     6   1.558
        34.920540       76.611367       92.093201     1     1     6     0     6   1.558
       226.843002       94.078426        8.147200     1     2     0     0     8   1.558
        23.366800      273.899788       22.245200     1     0     1     0     8   1.558
        63.693249       53.516721       45.043198     1     4     3     0     5   1.558
        94.948950      133.159823       58.147198     1     3     4     0     5   1.558
        39.757901      221.705206       28.437201     1     3     0     0     8   1.558
       260.270903      183.743824       16.723201     1     0     0     0     8   1.560
        55.323970       34.651215       13.867200     1     4     3     0     4   1.558
       217.222547        6.710196       14.159867     1     2     0     0     2   1.558
       172.944481        6.908093      103.839204     1     5     2     0     8   1.558
       265.928488      174.705115       22.567199     1     4     3     0     8   1.558
        14.497016      177.791681       87.909196     1     1     6     0     4   1.558
         0.197710       20.597332       70.679200     1     3     4     0     1   1.558
       258.132966      280.317518       88.813203     1     5     2     0     6   1.558
       233.311742      227.673239       16.771200     1     3     3     0     5   1.558
       106.990963      109.607522        6.343200     1     2     1     0     8   1.558
       205.353925       35.990384       22.993199     1     2     2     0     7   1.558
        64.663364      293.569171       16.659199     1     3     3     0     8   1.558
       284.494910      247.103161       20.169200     1     1     3     0     2   1.558
        55.913665       23.366041       80.259202     1     4     3     0     2   1.558
       148.966093      199.863837       25.107201     1     3     4     0     6   1.558
        67.887660      297.512107       24.973201     1     2     5     0     8   1.558
        38.503645       90.844414       10.209200     1     2     3     0     5   1.558
        30.207513      294.266495       43.049203     1     2     5     0     8   1.558
       134.628447      114.490948       19.949198     1     1     0     0     7   1.558
       218.343750       34.702350       28.145200     1     5     2     0     3   1.558
        72.772263      149.595493       39.445199     1     1     6     0     2   1.558
       261.406464      140.764344       26.251200     1     4     3     0     5   1.558
       281.216568       41.033305       27.327201     1     5     2     0     5   1.558
       287.783622      101.921337       65.995202     1     4     2     0     5   1.558
        48.201012       54.389021       37.081200     1     5     2     0     1   1.558
        90.671045      173.771546       59.655202     1     3     4     0     5   1.558
        41.421171      233.250495      107.727196     1     1     6     0     1   1.558
        52.046160      297.116883       61.951199     1     4     3     0     4   1.558
       125.985072      212.590005       16.173200     1     2     5     0     4   1.558
         8.143476       86.954051       57.433198     1     3     4     0     2   1.558
        10.752876      217.620096       67.347199     1     5     2     0     7   1.558
       195.560275      158.642658       47.995198     1     1     2     0     4   1.558
        40.058326       94.347121       10.987200     1     0     1     0     8   1.558
       265.549352       71.259962       79.875199     1     4     3     0     3   1.558
        53.946024       46.363039       39.173199     1     1     6     0     7   1.558
       277.517923      185.446486       11.561200     1     0     6     0     2   1.558
       195.862384       68.625441       17.683201     1     4     2     0     4   1.558
        80.864930      249.506587       22.233201     1     3     4     0     5   1.558
        89.095759      260.794450       84.229203     1     4     3     0     4   1.558
       118.342767       63.523387       35.025201     1     2     2     0     3   1.558
        26.149803        9.417367       12.101200     1     3     0     0     4   1.558
       281.679384      219.615102      113.263200     1     4     3     0     3   1.558
       291.101129       37.945348       11.273200     1     5     2     0     4   1.558
       116.814669      187.262193       27.791199     1     4     3     0     8   1.558
       151.383269      283.849761       25.351201     1     5     2     0     4   1.558
        78.057637      258.830162       43.485200     1     3     4     0     5   1.558
         9.644772       13.594892       65.129201     1     4     3     0     7   1.558
        63.753766      276.710008       54.481202     1     1     5     0     8   1.558
       154.138381      160.283742       28.631202     1     1     3     0     6   1.558
        52.528454      115.943505       11.259200     1     2     0     0     2   1.558
       203.787311       92.727795      107.371201     1     5     2     0     5   1.558
       295.552623        1.667559       76.471200     1     4     3     0     2   1.558
       263.895385      194.290361      149.981194     1     2     5     0     3   1.558
       264.195436       43.155118       11.019200     1     4     1     0     8   1.558
        38.037347       64.549985       50.253201     1     2     5     0     6   1.558
        21.116733      120.923791       19.893201     1     4     3     0     8   1.558
        69.123469       90.432032        8.829866     1     0     0     0     8   1.560
       293.517381      248.602390       31.873200     1     6     1     0     5   1.558
       144.079061      105.477488       60.697201     1     3     4     0     7   1.558
         8.365497      280.305796      108.631203     1     3     4     0     1   1.558
         7.987889      261.541113       41.849864     1     3     4     0     1   1.558
       261.360231       58.653785       81.475198     1     2     5     0     2   1.558
        38.519585      172.421047       17.885200     1     2     5     0     3   1.558
       114.494779      191.705194       19.851201     1     6     1     0     4   1.558
         4.817068      182.014653       28.769200     1     1     6     0     8   1.558
       227.139886       38.511804        7.909200     1     0     2     0     8   1.558
       203.805753      130.932537       37.635201     1     3     4     0     6   1.558
       178.846661      100.290654       30.831200     1     3     4     0     2   1.558
        39.059479      149.633467       66.815198     1     2     5     0     8   1.558
        39.156298       64.503848       23.099200     1     2     1     0     3   1.558
       175.840530      207.801179       21.253199     1     2     5     0     5   1.558
       290.138561       63.499628       33.441201     1     3     4     0     2   1.558
       265.117740       83.269281      118.567200     1     1     1     0     8   1.558
       295.856853      118.100553       46.789201     1     4     2     0     4   1.558
       101.353560       64.980743       44.135201     1     6     1     0     3   1.558
        55.385071      188.784433       77.273194     1     3     4     0     3   1.558
        14.723698      171.298948       15.887199     1     3     4     0     6   1.558
         6.741775      171.061487        9.815200     1     2     1     0     6   1.558
       200.832568       53.159814       19.673199     1     2     0     0     2   1.558
        95.711039      159.037880       45.273198     1     2     5     0     4   1.558
       248.881253        7.371981       83.685197     1     2     5     0     8   1.558
       189.217539      120.971019       34.141200     1     3     4     0     2   1.558
       180.365128      202.700436       33.085200     1     4     3     0     3   1.558
       169.352786       38.938765       89.503197     1     5     2     0     3   1.558
       217.681250      249.035947       65.309201     1     6     1     0     7   1.558
       180.507921       57.107455       35.139199     1     5     2     0     4   1.558
       185.376227      184.684565       49.283200     1     3     4     0     4   1.558
       130.123919      175.107607       24.755200     1     5     2     0     8   1.558
       138.617211      282.994982       39.147202     1     5     2     0     5   1.558
        37.499922      162.061379        6.910533     1     1     1     0     4   1.558
        19.588756      140.050843        7.143200     1     0     1     0     2   1.558
        94.594124      252.114577       90.455193     1     4     3     0     8   1.558
       112.874595      134.656921       55.107198     1     3     4     0     8   1.558
       173.468672      195.740984       24.215201     1     3     4     0     6   1.558
        75.918412      170.941584       25.143201     1     3     4     0     1   1.558
       281.360878      212.038510        8.121200     1     1     0     0     4   1.558
         4.936124       54.252760       11.561200     1     4     3     0     4   1.558
       193.113887       55.552922       33.679200     1     0     1     0     5   1.558
       192.419242       26.930129       18.371199     1     4     0     0     2   1.558
       211.330834      289.464437       73.273194     1     6     1     0     3   1.558
       175.359045      180.455681       21.469199     1     2     3     0     2   1.558
        87.521773      130.798227       76.687203     1     5     2     0     2   1.558
       264.039543       90.996793       38.727200     1     4     3     0     1   1.558
        70.070624      294.921004       86.075204     1     6     1     0     6   1.558
        46.705991      248.829835       42.371197     1     3     4     0     4   1.558
       128.523862      190.499734       96.107201     1     1     6     0     8   1.558
       161.669037      162.113628        8.195200     1     0     0     0     8   1.560
        88.698627      260.433098       63.633198     1     3     4     0     1   1.558
       196.099548        5.303433        6.697200     1     0     1     0     5   1.558
       177.751920       50.399710       38.835202     1     4     1     0     5   1.558
        66.973208      249.746514       10.993200     1     0     1     0     3   1.558
        37.783022      176.295297       75.465203     1     0     1     0     4   1.558
       253.833006      225.167420        7.991200     1     0     4     0     5   1.558
       165.201434      195.528057       11.485200     1     1     3     0     8   1.558
       245.367981       29.163993       30.231200     1     1     6     0     1   1.558
       132.289221        4.714382       96.025201     1     2     5     0     7   1.558
        40.480368      276.893951      106.575196     1     2     5     0     5   1.558
       200.996503      173.324773       15.229200     1     1     5     0     3   1.558
       168.722128      177.572656       46.875199     1     2     4     0     6   1.558
       278.792013      184.577938       41.133198     1     3     3     0     7   1.558
       255.205814      191.033126       38.711201     1     1     0     0     6   1.558
        71.060195      244.494390       27.839200     1     3     3     0     4   1.558
       233.116490      190.318527       40.565202     1     2     5     0     8   1.558
       111.495211      127.052084       21.627200     1     7     0     0     8   1.558
        91.156160      244.383509       10.313200     1     3     3     0     8   1.558
       247.332632      298.688981       56.515202     1     5     2     0     8   1.558
       243.316792      189.565456       22.415200     1     5     2     0     8   1.558
       234.626025      289.010907       55.037202     1     3     4     0     2   1.558
        70.733100       74.356135       14.975200     1     4     3     0     2   1.558
        64.864166        1.458082       21.007201     1     2     4     0     7   1.558
       153.031975       41.519126       13.345391     1     2     0     0     4   1.558
       144.025012      155.036555       49.891198     1     1     6     0     1   1.558
       158.465800      141.926026       29.845200     1     4     3     0     1   1.558
       297.036491       42.366908       38.953198     1     4     3     0     8   1.558
        73.372434      196.228012       48.105199     1     2     5     0     5   1.558
        67.206766      177.429148       73.137200     1     2     4     0     3   1.558
        30.581301      232.839659       56.703198     1     4     3     0     2   1.558
       133.039504      129.017845       24.927201     1     3     0     0     2   1.558
       109.472344       83.924576       20.101201     1     5     2     0     6   1.558
       177.037128      244.031018       62.883202     1     0     0     0     8   1.560
       164.950527      102.660160       22.971200     1     3     3     0     2   1.558
       163.061781       19.310082       25.069199     1     3     1     0     6   1.558
         1.153694      258.393142       71.377206     1     3     4     0     8   1.558
       247.694764      115.485551       43.049203     1     5     2     0     5   1.558
       177.132769      270.931981       42.561200     1     4     3     0     1   1.558
        68.427362       90.879866       96.751199     1     2     5     0     6   1.558
       250.132010       67.828937       48.745198     1     4     3     0     8   1.558
       164.051377      201.806349       77.561196     1     5     2     0     1   1.558
       118.899174      170.830222        7.867200     1     2     1     0     4   1.558
       215.229038      174.665551       80.339204     1     3     2     0     5   1.558
        53.344543        3.376560       66.651204     1     5     2     0     3   1.558
       278.874970      149.225824       50.563203     1     3     4     0     1   1.558
       169.901500      262.717416       19.169200     1     2     4     0     2   1.558
       246.105030      125.276834       62.705201     1     2     5     0     8   1.558
        32.940287      186.499995       15.855201     1     0     0     0     1   1.560
       165.816651      221.451851       64.817200     1     3     4     0     2   1.558
       153.284000      158.319395        9.863200     1     0     0     0     4   1.560
        76.631708       14.647352       34.019200     1     1     1     0     2   1.558
       241.602292      294.228159       17.483200     1     2     1     0     2   1.558
       219.160420      159.613902        9.891200     1     1     4     0     4   1.558
       100.566734      223.022696        6.809200     2     0     1     0     4   1.963
       104.364031      222.298325       47.533200     1     3     4     0     8   1.558
       277.968509      175.393964       74.063195     1     3     4     0     4   1.558
       216.139274      126.723329       61.447198     1     1     6     0     5   1.558
        81.659756       95.440754       37.119199     1     2     5     0     8   1.558
       264.803963      146.952173       69.093194     1     5     2     0     3   1.558
       275.488185      276.478012       14.041199     1     2     2     0     4   1.558
       194.384476       71.403457       73.459199     1     4     3     0     8   1.558
       164.828597      209.109026       19.557200     1     1     0     0     5   1.558
       283.032541       75.443153       45.997197     1     4     3     0     2   1.558
        29.263785        6.595351       38.313199     1     1     1     0     7   1.558
        83.545934      293.652809       39.189202     1     1     0     0     4   1.558
       165.138644      228.876194      192.079201     1     3     4     0     5   1.558
        21.815080       14.458065       12.035200     1     3     2     0     2   1.558
        56.865001       82.459775       24.547200     1     2     2     0     5   1.558
       221.940735       21.937186       69.991204     1     4     3     0     3   1.558
        91.353929      280.280767       89.511201     1     2     5     0     3   1.558
        14.788963       59.475646       15.079200     1     3     2     0     4   1.558
       174.681162      219.933827       45.367200     1     2     5     0     8   1.558
       243.159320      162.423556       42.823197     1     1     5     0     3   1.558
        42.228484      255.434408       48.527200     1     5     2     0     8   1.558
        11.640182       56.249076       79.351205     1     2     5     0     4   1.558
       262.421144      293.603321       45.953198     1     1     6     0     8   1.558
       138.568201       81.346390       37.181199     1     3     2     0     2   1.558
        31.767030      284.766097      131.987206     1     3     4     0     7   1.558
       232.190096      129.252364       59.035199     1     2     5     0     3   1.558
       194.794561      299.751585       22.021201     1     1     1     0     2   1.558
       146.563082      271.410448       28.721200     1     0     0     0     6   1.560
       224.835421      201.336906        7.840200     2     0     0     0     5   1.960
        39.031881      279.665665       66.205205     1     4     3     0     3   1.558
        61.347081       59.658033       13.727200     1     2     2     0     4   1.558
        51.160816       66.339935       52.523198     1     4     3     0     8   1.558
       137.460709      238.931414       24.647200     1     4     3     0     4   1.558
       297.716183       98.596742       82.103204     1     3     5     0     7   1.558
       258.251221      252.111847       25.729199     1     3     4     0     6   1.558
       236.794225      106.864121       38.673424     1     1     6     0     4   1.558
        31.537813       32.954361       41.647198     1     5     2     0     7   1.558
        65.371443      218.879070       54.537198     1     3     4     0     2   1.558
       147.172892      228.538500       54.483201     1     3     0     0     1   1.558
       228.969777       68.816112       46.589200     1     3     3     0     8   1.558
       197.928079       73.215887       77.993195     1     3     4     0     2   1.558
       119.309443      201.810046      109.427201     1     5     1     0     3   1.558
       162.176761      107.004395        7.355200     1     2     1     0     8   1.558
        83.769469      227.187836       44.647202     1     2     5     0     4   1.558
       211.592048      191.581665       16.523200     1     4     3     0     8   1.558
        18.317129       33.450309       29.281201     1     1     2     0     5   1.558
       159.498662      116.468598       89.671204     1     4     3     0     8   1.558
       106.919850       19.889238       46.097199     1     2     5     0     1   1.558
       208.827944      208.757925        7.221200     1     1     1     0     2   1.558
       128.285915       39.344506       33.247201     1     7     0     0     7   1.558
       232.139126      176.510897       41.647198     1     2     4     0     3   1.558
       115.620981      258.777135       50.749200     1     4     3     0     5   1.558
       109.620827      143.816864       83.701203     1     5     2     0     2   1.558
       208.382055       35.944061       44.303200     1     3     4     0     2   1.558
       158.034071      264.589577       39.743199     1     2     2     0     6   1.558
       225.203186      183.159276       53.709203     1     4     3     0     4   1.558
       183.694329      214.226470       24.917199     1     5     1     0     3   1.558
       165.650441      296.292530       39.731202     1     0     0     0     3   1.560
       282.451286      240.486175       22.013200     1     3     4     0     6   1.558
       162.233736       86.641828       57.379201     1     4     3     0     4   1.558
       131.406397      111.884934       56.311200     1     2     5     0     7   1.558
       184.820917       46.536096       55.237199     1     5     2     0     8   1.558
       161.569589       54.229543       88.467202     1     7     0     0     2   1.558
       269.384126        3.950698       56.477200     1     4     3     0     8   1.558
       197.467215      198.813413       15.855201     1     1     2     0     4   1.558
       151.546732      219.832682       86.985200     1     4     0     0     8   1.558
       233.280955      111.926216       30.549201     1     0     0     0     8   1.560
       146.284210      215.822240       42.019200     1     5     2     0     7   1.558
       200.883133       59.642798       15.129200     1     1     4     0     4   1.558
       211.778548      133.705315       20.447200     1     5     2     0     6   1.558
       146.835590       16.052664       49.737199     1     5     2     0     2   1.558
       287.380829       19.432994      144.615197     1     3     4     0     7   1.558
       155.765320      140.126463       30.805199     1     1     5     0     5   1.558
       230.881232      193.364008       28.551200     1     2     4     0     8   1.558
        84.488553      112.148394       34.665200     1     3     4     0     8   1.558
       184.434164      265.034250       65.771199     1     5     2     0     1   1.558
       215.878006      170.996519       22.289199     1     3     4     0     2   1.558
        89.848463       50.238572       46.909203     1     1     2     0     3   1.558
        46.359027       71.099022       49.283200     1     4     3     0     1   1.558
       138.203673       53.112397       49.139203     1     3     4     0     5   1.558
       141.533513      172.283563       19.789201     1     3     4     0     2   1.558
       219.306224       94.824117       18.403200     1     3     3     0     4   1.558
       250.580061       63.490366       15.547200     1     3     3     0     2   1.558
       274.398833      135.184438       36.389203     1     3     4     0     2   1.558
       232.815396       45.375675       37.279198     1     0     0     0     7   1.560
        88.584587      233.840815       37.651200     1     4     3     0     1   1.558
       139.594018      152.507754       80.333199     1     1     5     0     2   1.558
        72.106223      209.218900       40.703198     1     3     4     0     5   1.558
        57.169652      174.417603       96.013200     1     6     1     0     1   1.558
       211.448993      261.299388       72.163201     1     5     2     0     6   1.558
       174.039807      167.534312       45.905198     1     2     5     0     8   1.558
         7.098780       18.702941       23.485200     1     2     5     0     8   1.558
        86.625107      104.957504       52.199200     1     2     5     0     8   1.558
       259.236150      227.924684       51.133198     1     4     3     0     6   1.558
       166.218579      218.879188       60.389203     1     5     2     0     6   1.558
        78.288062      119.494875       36.991200     1     3     4     0     3   1.558
        25.985057      221.087724       45.973199     1     4     3     0     2   1.558
         8.535215      272.669176       14.099200     1     0     3     0     8   1.558
       108.676266      201.226061       10.197200     1     2     1     0     4   1.558
       114.444492      278.991663       29.937199     1     1     3     0     8   1.558
       190.308648      258.844446       16.725199     1     2     1     0     5   1.558
       149.693998      217.880286       23.697201     1     5     2     0     8   1.558
       113.210854      252.978605       23.813201     1     5     2     0     7   1.558
       235.665623      190.750552       14.577201     1     2     4     0     8   1.558
       213.829896      156.937152       96.835206     1     3     4     0     4   1.558
       153.154438      257.155594       31.627200     1     4     0     0     3   1.558
        68.865616      212.896141      113.767197     1     5     2     0     6   1.558
       292.374418      254.959705       19.775201     1     3     2     0     4   1.558
        15.523413        1.381184        7.867200     1     1     0     0     8   1.558
         5.542113        1.590912       35.709199     1     7     0     0     5   1.558
       176.014127       72.589678       82.103204     1     1     6     0     7   1.558
       280.102215      161.945249       36.243199     1     6     1     0     5   1.558
       231.193682      121.644587       40.137200     1     5     1     0     2   1.558
       290.121164       69.814895       55.487199     1     5     2     0     8   1.558
        18.818406       31.406906        8.561200     1     0     2     0     2   1.558
       126.511242       56.167435       26.647200     1     3     4     0     8   1.558
       173.965322      175.505936       20.237200     1     0     1     0     8   1.558
       254.973388      183.623531       64.427201     1     5     2     0     5   1.558
       126.058058       41.662627       42.531201     1     5     2     0     1   1.558
       248.216897      197.838846       66.355199     1     3     4     0     6   1.558
       169.555497       82.534018       52.209203     1     6     1     0     4   1.558
       106.007736      169.111031      124.413201     1     5     2     0     1   1.558
       214.183262        2.261138       78.261201     1     2     4     0     8   1.558
        34.147677      101.952397       31.209201     1     0     1     0     8   1.558
       299.414452      165.877134       59.759198     1     3     4     0     5   1.558
       131.795036      148.993043       99.905198     1     3     4     0     7   1.558
       170.942889      189.701069       68.395196     1     6     1     0     6   1.558
        83.598705      151.531280       24.673201     1     0     2     0     5   1.558
        12.152583      124.593298       16.781200     1     2     5     0     2   1.558
       196.869774      136.728631        8.989200     1     0     1     0     1   1.558
        95.839857      163.578062      107.147202     1     3     4     0     3   1.558
       171.315519      188.263504       91.345200     1     2     4     0     4   1.558
       160.912598       32.951549      109.887200     1     3     4     0     4   1.558
       250.139425      124.093130       66.131196     1     4     3     0     3   1.558
       140.235191       47.256771       57.323197     1     4     3     0     1   1.558
       204.331638      124.341444       72.307198     1     4     3     0     3   1.558
       115.717387      221.392665       46.369199     1     1     6     0     4   1.558
       191.505900      174.087346       14.043200     1     4     1     0     8   1.558
       175.680019      134.026660       23.241198     1     4     3     0     4   1.558
       156.460577      217.558067       33.723199     1     3     4     0     8   1.558
       264.268869      286.424795       23.899199     1     4     3     0     8   1.558
        67.172490      221.892507       11.431200     1     3     2     0     2   1.558
       218.142011      201.201616       38.869202     1     3     5     0     6   1.558
       118.997615       89.460575       11.229200     1     3     2     0     2   1.558
        83.813646      223.306111       45.731202     1     3     4     0     3   1.558
       232.672881      229.749761       31.009200     1     2     4     0     4   1.558
         9.046915      269.717177       82.845200     1     2     5     0     6   1.558
       181.375790       58.107903       28.877200     1     3     4     0     6   1.558
       112.464285        0.970127       35.537202     1     3     4     0     5   1.558
       143.889579       12.542168       20.437199     1     2     2     0     8   1.558
        46.034833      265.314439       39.783200     1     3     2     0     3   1.558
       265.710735      224.611436       45.605202     1     4     3     0     6   1.558
        76.984442      259.107662       57.891202     1     1     6     0     3   1.558
       217.143149       78.511348       11.909200     1     3     0     0     4   1.558
        58.916650       90.369878       69.183198     1     2     5     0     6   1.558
       166.014289      265.050790       17.465200     1     2     2     0     3   1.558
        49.844316      195.004524       17.223201     1     2     1     0     2   1.558
        10.605540       64.095860       10.803200     1     4     3     0     2   1.558
       289.880193       92.530369       71.439202     1     6     1     0     3   1.558