ITEM: TIMESTEP
0
ITEM: NUMBER OF ATOMS
         170
ITEM: BOX BOUNDS pp pp pp
  0.0000000E+00   300.000000000000     
  0.0000000E+00   300.000000000000     
  0.0000000E+00   1000.00000000000     
ITEM: ATOMS x y z f1 f2 f3 f4 orient radius
        15.523413        1.381184        7.867200     1     0     0     0     8   1.560
       222.282295      222.052691      104.211205     1     5     2     0     7   1.558
        51.460559       77.946814       68.905198     1     3     4     0     8   1.558
       129.332428       78.066714       10.987200     1     1     0     0     4   1.558
       137.965777      164.328421       27.165200     1     2     1     0     2   1.558
       197.585136      112.956757       58.177197     1     1     2     0     3   1.558
       126.058058       41.662627       42.531201     1     2     3     0     8   1.558
       152.907969      129.491132       69.685197     1     4     2     0     5   1.558
        92.267720       95.843808      106.179200     1     4     3     0     5   1.558
       263.509799       63.406168       32.387200     1     1     2     0     2   1.558
       196.099548        5.303433        6.697200     1     0     0     0     4   1.560
       224.760669      259.651279      122.559197     1     4     3     0     3   1.558
       261.406464      140.764344       26.251200     1     0     1     0     1   1.558
       157.440238      154.796531       13.693200     1     3     1     0     8   1.558
       165.201434      195.528057       11.485200     1     0     0     0     6   1.560
       181.375790       58.107903       28.877200     1     0     0     0     8   1.560
       208.827944      208.757925        7.221200     1     0     0     0     5   1.560
        48.239467      203.217710       10.929200     1     0     2     0     5   1.558
       175.791774       44.844624       45.147198     1     1     2     0     3   1.558
       287.783622      101.921337       65.995202     1     4     3     0     5   1.558
       101.999970       28.409271       44.635197     1     3     4     0     2   1.558
        48.949195      213.720864       49.931203     1     4     3     0     2   1.558
        53.946024       46.363039       39.173199     1     3     0     0     5   1.558
       189.199376      166.268962       18.691200     1     0     0     0     5   1.560
        55.323970       34.651215       13.867200     1     1     0     0     4   1.558
        99.968057      141.979074       83.665200     1     4     3     0     5   1.558
       161.379368      221.578798       34.855202     1     2     2     0     7   1.558
       164.051377      201.806349       77.561196     1     2     5     0     5   1.558
        39.031881      279.665665       66.205205     1     6     1     0     2   1.558
       205.236369        9.125001      109.929200     1     3     4     0     4   1.558
       213.584361       87.052534       18.641200     1     1     1     0     2   1.558
        81.380424      253.894293       52.623200     1     0     0     0     8   1.560
       259.923478       84.106572       31.943200     1     1     0     0     5   1.558
        44.222221      228.538228       50.441201     1     6     1     0     8   1.558
       255.185042       54.363962       68.337205     1     2     5     0     2   1.558
       217.278151      214.994395       23.625201     1     0     3     0     2   1.558
       194.133984       36.572105      108.573197     1     3     4     0     3   1.558
       186.402085      177.913335      163.529198     1     3     4     0     1   1.558
       176.014127       72.589678       82.103204     1     4     3     0     5   1.558
       200.996503      173.324773       15.229200     1     0     0     0     1   1.560
        58.938125       16.717440       85.895203     1     4     3     0     3   1.558
       117.473180      290.735621       29.071200     1     0     1     0     7   1.558
       185.388878      279.989770       64.959203     1     4     3     0     8   1.558
        94.594124      252.114577       90.455193     1     3     4     0     2   1.558
       106.990963      109.607522        6.343200     1     0     0     0     4   1.560
       125.141344      238.601144       19.257201     1     0     0     0     1   1.560
        10.752876      217.620096       67.347199     1     4     3     0     2   1.558
       189.217539      120.971019       34.141200     1     1     0     0     7   1.558
       182.822462      119.369762       14.071200     1     0     3     0     1   1.558
         6.963717      192.863133       15.419200     2     4     1     0     8   1.963
       281.216568       41.033305       27.327201     1     0     1     0     4   1.558
        72.106223      209.218900       40.703198     1     2     2     0     5   1.558
       267.561787      221.332619       58.223199     1     6     1     0     6   1.558
       282.451286      240.486175       22.013200     1     2     2     0     1   1.558
       222.420511      142.768720       64.151200     1     3     4     0     2   1.558
        67.206766      177.429148       73.137200     1     1     4     0     6   1.558
       159.320742      195.136922       48.223202     1     5     2     0     1   1.558
       175.680019      134.026660       23.241198     1     3     4     0     5   1.558
       165.764541      158.690331      101.793198     1     3     4     0     5   1.558
       165.816651      221.451851       64.817200     1     2     5     0     8   1.558
         4.936124       54.252760       11.561200     1     1     0     0     5   1.558
        88.434842        9.864416       24.889201     1     2     1     0     2   1.558
        73.595209       83.089825       42.759198     1     4     3     0     1   1.558
         5.542113        1.590912       35.709199     1     2     5     0     8   1.558
       289.107868       24.788140       34.893199     1     1     2     0     4   1.558
       255.776229       92.532353       96.197205     1     4     3     0     6   1.558
       290.989221      222.622305       51.887200     1     3     4     0     5   1.558
       114.760245       17.417750      139.655205     1     7     0     0     7   1.558
       129.774622       62.975739       40.055199     1     0     2     0     3   1.558
       264.268869      286.424795       23.899199     1     1     2     0     8   1.558
        18.818406       31.406906        8.561200     1     0     0     0     2   1.560
        80.864930      249.506587       22.233201     1     1     0     0     1   1.558
        41.421171      233.250495      107.727196     1     4     2     0     2   1.558
       229.784371      287.766832       40.997201     1     2     5     0     8   1.558
       258.782878      236.274550       16.051200     1     1     1     0     4   1.558
        34.571035       49.494934       68.947205     1     3     2     0     6   1.558
        12.152583      124.593298       16.781200     1     1     0     0     7   1.558
       111.495211      127.052084       21.627200     1     2     1     0     4   1.558
       168.830911      229.506347       43.907201     1     2     5     0     2   1.558
       104.364031      222.298325       47.533200     1     2     2     0     2   1.558
        17.670714      188.533858       11.279200     1     0     1     0     7   1.558
       227.565500      276.290695       20.181199     1     1     0     0     2   1.558
       146.284210      215.822240       42.019200     1     1     6     0     2   1.558
       179.049098      259.424348       33.851201     1     2     4     0     3   1.558
       290.138561       63.499628       33.441201     1     5     2     0     8   1.558
       118.899174      170.830222        7.867200     1     0     0     0     7   1.560
       235.665623      190.750552       14.577201     1     1     0     0     3   1.558
       183.145056      164.427590       16.615201     1     2     0     0     7   1.558
       251.502731      197.973005       38.711201     1     2     5     0     2   1.558
        14.723698      171.298948       15.887199     1     1     1     0     8   1.558
       162.176761      107.004395        7.355200     1     0     1     0     2   1.558
       137.693070      274.817312       37.327199     1     1     1     0     8   1.558
       278.874970      149.225824       50.563203     1     3     4     0     2   1.558
        42.228484      255.434408       48.527200     1     4     3     0     1   1.558
        76.718154       16.815463       98.571206     1     4     3     0     3   1.558
        81.659756       95.440754       37.119199     1     2     1     0     7   1.558
        89.095759      260.794450       84.229203     1     4     3     0     5   1.558
       276.195590       84.769701       58.857198     1     3     4     0     3   1.558
        65.079571      120.406794       20.643201     1     2     1     0     6   1.558
       148.730905      283.005195      115.437203     1     3     4     0     7   1.558
       270.988444      151.709069       46.589200     1     4     3     0     6   1.558
        91.353929      280.280767       89.511201     1     5     2     0     8   1.558
       128.409177      121.376115      177.827187     1     5     2     0     8   1.558
        23.321639      198.851888       93.081200     1     4     3     0     5   1.558
       175.840530      207.801179       21.253199     1     0     2     0     4   1.558
       119.511519       28.788727       36.695199     1     0     1     0     2   1.558
       296.605915        6.760063       45.373200     1     2     3     0     4   1.558
         9.644772       13.594892       65.129201     1     4     3     0     7   1.558
        90.671045      173.771546       59.655202     1     4     2     0     5   1.558
        59.073933       46.976295       19.249200     1     1     4     0     2   1.558
       130.123919      175.107607       24.755200     1     0     0     0     8   1.560
        71.060195      244.494390       27.839200     1     1     0     0     8   1.558
       235.399160      129.679817       26.679200     1     3     4     0     3   1.558
       219.377549      229.873038       67.711198     1     4     3     0     8   1.558
        95.455857       31.257433       18.465200     1     0     1     0     7   1.558
       148.902944       43.298293       56.131200     1     5     2     0     4   1.558
       144.079061      105.477488       60.697201     1     3     4     0     7   1.558
       273.400825      224.634738       41.643197     1     6     1     0     4   1.558
       276.801875      199.000706        7.899200     1     3     1     0     2   1.558
       276.949640      105.515996       13.043200     1     0     0     0     3   1.560
       287.380829       19.432994      144.615197     1     4     3     0     8   1.558
        48.201012       54.389021       37.081200     1     1     5     0     2   1.558
       247.402098      118.165456        8.001200     1     0     0     0     7   1.560
       122.637903       22.858560       34.487199     1     3     2     0     6   1.558
         9.946951      200.385546       40.423199     1     5     2     0     2   1.558
       121.347577      210.178053       54.609200     1     1     2     0     7   1.558
       159.052207      259.091057       38.449200     1     4     3     0     6   1.558
       196.292563       74.394946       13.503200     1     0     0     0     8   1.560
       115.717387      221.392665       46.369199     1     3     4     0     3   1.558
       289.880193       92.530369       71.439202     1     4     3     0     3   1.558
       202.385118      191.094213       30.119200     1     4     2     0     6   1.558
        81.353068      243.939784       42.143201     1     0     1     0     2   1.558
       220.739835      104.471957       19.689200     1     0     0     0     7   1.560
        58.916650       90.369878       69.183198     1     1     4     0     1   1.558
       239.095616      188.062563       14.243200     1     0     0     0     1   1.560
       277.968509      175.393964       74.063195     1     5     2     0     6   1.558
       158.465800      141.926026       29.845200     1     0     0     0     8   1.560
       175.506202      163.751713       16.059200     1     0     1     0     1   1.558
       211.330834      289.464437       73.273194     1     0     2     0     5   1.558
       232.139126      176.510897       41.647198     1     4     3     0     2   1.558
       211.778548      133.705315       20.447200     1     0     1     0     5   1.558
       149.353837       47.523329       62.985200     1     0     0     0     7   1.560
        50.612087      288.454600       47.497201     1     2     4     0     1   1.558
       257.905418      290.331458       34.971200     1     2     1     0     2   1.558
       101.353560       64.980743       44.135201     1     4     1     0     2   1.558
        41.615171      133.452546       36.075200     1     5     2     0     8   1.558
        95.035510      258.900795       37.953202     1     2     2     0     7   1.558
       125.075803      204.432073       65.997197     1     3     4     0     5   1.558
       294.129805       21.817295       31.125201     1     6     1     0     6   1.558
        83.813646      223.306111       45.731202     1     0     0     0     4   1.560
       225.203186      183.159276       53.709203     1     0     0     0     3   1.560
       218.343750       34.702350       28.145200     1     2     3     0     2   1.558
       216.325016       61.357192       46.097199     1     4     3     0     8   1.558
        64.663364      293.569171       16.659199     1     2     2     0     5   1.558
       206.080479      261.693362       55.519200     1     2     2     0     2   1.558
       139.594018      152.507754       80.333199     1     5     2     0     1   1.558
        70.733100       74.356135       14.975200     1     0     0     0     3   1.560
        29.895753        6.751012        8.697200     1     0     1     0     8   1.558
       161.569589       54.229543       88.467202     1     0     0     0     3   1.560
       162.124502      281.511110       43.011201     1     3     2     0     3   1.558
       211.592048      191.581665       16.523200     1     1     1     0     4   1.558
       213.411216      236.444335        6.433200     1     0     0     0     1   1.560
       174.681162      219.933827       45.367200     1     4     2     0     5   1.558
       107.223039      147.836494       31.799201     1     3     2     0     6   1.558
       194.155287      109.383103       34.361199     1     4     3     0     5   1.558
       168.835895      189.026266      107.003197     1     3     4     0     4   1.558
       132.289221        4.714382       96.025201     1     4     3     0     4   1.558
       264.803963      146.952173       69.093194     1     2     1     0     7   1.558
        97.687130       37.937124       36.785199     1     2     3     0     6   1.558
        65.391229       88.271893       37.557198     1     5     1     0     7   1.558
