ITEM: TIMESTEP
0
ITEM: NUMBER OF ATOMS
        1270
ITEM: BOX BOUNDS pp pp pp
  0.0000000E+00   200.000000000000     
  0.0000000E+00   200.000000000000     
  0.0000000E+00   5000.00000000000     
ITEM: ATOMS x y z f1 f2 f3 f4 orient radius
        75.007052       68.449144      355.932687     1     0     0     0     1   1.560
         7.600830      168.038681      186.442696     1     0     0     0     3   1.560
       116.626237       27.432462      478.957711     1     0     0     0     2   1.560
        94.953230       24.730104      132.350198     1     0     0     0     6   1.560
        14.887325      169.156961      905.820229     1     0     0     0     3   1.560
       178.483693       34.800768      696.457680     1     0     0     0     1   1.560
        65.345834        3.827335      311.886870     1     0     0     0     3   1.560
       175.330346       26.955815      431.900185     1     0     0     0     6   1.560
        62.267246       31.175367      578.032693     1     0     0     0     4   1.560
       124.265205       46.315181       37.330201     1     0     0     0     4   1.560
       150.427144      134.478011      250.040200     1     1     0     0     2   1.558
        90.304367      130.139204      289.970909     1     0     0     0     4   1.560
       134.343961       54.792057      267.735207     1     2     0     0     2   1.558
        86.363264       21.313206      155.287698     1     0     0     0     1   1.560
       103.148555      176.066904      229.710198     1     0     0     0     5   1.560
        41.252080      145.400471      358.830209     1     0     0     0     2   1.560
       142.366805       26.860746      734.956966     1     0     0     0     5   1.560
       123.992486       19.844080      563.227700     1     0     0     0     6   1.560
        72.464264      117.878012      190.105202     1     0     0     0     5   1.560
       175.831235       21.172741      932.471861     1     0     0     0     3   1.560
        49.290292      159.496872      508.392709     1     0     0     0     2   1.560
       146.977670      150.857951      468.370187     1     1     0     0     8   1.558
        74.704869      181.607273     1008.195229     1     3     0     0     3   1.558
        77.833493       20.269302      365.925210     1     0     0     0     6   1.560
       189.175554      101.989683      217.927697     1     0     0     0     7   1.560
        33.052127       75.386583      110.365197     1     0     0     0     1   1.560
        27.268191       73.534776      110.115197     1     0     0     0     6   1.560
       190.209227       27.522795      309.355202     1     0     0     0     3   1.560
       102.234008      107.936227      772.895180     1     0     0     0     2   1.560
       120.189342      154.449807      172.892693     1     0     0     0     8   1.560
        41.409820      122.251236      284.491026     1     0     0     0     3   1.560
        34.554440       77.330628      128.430199     1     0     0     0     7   1.560
        91.430322       84.755864      267.095193     1     0     0     0     6   1.560
       157.505718      187.215072      602.190224     1     0     0     0     5   1.560
        26.168699      158.902182      310.234363     1     0     0     0     5   1.560
       188.543252       85.590994      756.350198     2     0     0     0     3   1.960
        95.557565       41.463103       17.927700     3     0     0     0     7   2.250
        62.967677      112.719572      232.802697     1     0     0     0     2   1.560
        17.982113      118.547444      320.437691     1     0     0     0     6   1.560
       181.742052       45.564203      676.732705     1     0     0     0     7   1.560
       166.982055      156.478424       88.350213     1     0     0     0     1   1.560
       198.695518       85.646363      430.127694     1     0     0     0     1   1.560
       159.858518       64.028338      177.604340     1     0     0     0     3   1.560
        50.747038       67.975727      870.522683     1     2     0     0     6   1.558
        92.196033       73.862014      358.180215     1     0     0     0     8   1.560
       139.455741      173.126195      764.822671     1     0     0     0     3   1.560
        72.407276       81.711216      252.787698     1     0     0     0     5   1.560
       112.997734      189.114439       92.122697     1     0     0     0     1   1.560
       131.844997       29.018331      178.797707     1     0     0     0     2   1.560
       112.767959       34.426307      229.298502     1     0     0     0     2   1.560
       182.856017      174.533572      926.015176     1     0     0     0     2   1.560
        72.447373       28.485045      996.137673     1     0     0     0     7   1.560
        99.290280      151.058656      905.927712     1     0     0     0     3   1.560
        45.870257       99.724445      148.932702     1     0     0     0     1   1.560
        53.314835      130.893865     1068.398007     1     5     0     0     4   1.558
       155.565958       89.633344      125.450204     1     0     0     0     8   1.560
         7.225791        6.617266      555.667702     1     1     0     0     2   1.558
         7.598911      157.818627      505.972695     1     0     0     0     8   1.560
       147.709021      157.136763      641.730202     1     0     0     0     1   1.560
       185.159388        9.810768      272.360207     1     0     0     0     1   1.560
       135.152703       27.074760       58.065202     1     0     0     0     1   1.560
       168.087291      107.155377      494.638528     1     0     0     0     1   1.560
       120.489068       76.905149      334.645211     1     1     0     0     3   1.558
       190.273348       76.652892      723.201046     1     0     0     0     2   1.560
        16.124466      108.597230      653.332439     1     2     0     0     5   1.558
       178.637048       56.168490      172.980202     1     1     0     0     1   1.558
       131.044792      168.021790      409.995187     1     0     0     0     8   1.560
       142.290581      150.449901      972.912820     1     1     0     0     4   1.558
        90.898120      124.563520      259.989981     1     0     0     0     4   1.560
        41.939399       60.709993      567.777688     1     0     0     0     7   1.560
        39.064181       59.770700      914.450173     1     1     0     0     5   1.558
        92.116188       80.686965      350.360048     1     0     0     0     6   1.560
       124.429833       59.617130      158.272698     1     0     0     0     8   1.560
       199.204611      117.310180       62.185200     1     0     0     0     8   1.560
       150.970219       62.483594      672.517678     1     0     0     0     3   1.560
        76.273181      123.404867      292.115212     1     0     0     0     5   1.560
        76.185211       20.370813      251.875207     1     0     0     0     2   1.560
         8.053747      162.613948      135.320199     2     0     0     0     4   1.960
        70.436095      172.745608      736.370217     1     4     0     0     4   1.558
       193.198642      138.034637      232.631888     1     0     0     0     5   1.560
        22.249773       13.804050      678.547262     1     0     0     0     1   1.560
       119.623377       19.618629      424.477700     1     0     0     0     3   1.560
       100.401420       96.437850      110.077698     1     1     0     0     3   1.558
        70.069347       16.886831      848.927712     1     0     0     0     1   1.560
        90.299325       24.157707      148.545205     1     0     0     0     6   1.560
       101.235669      135.024671      132.364067     1     0     0     0     6   1.560
       101.842707       20.396506      114.610200     1     0     0     0     8   1.560
       143.103670       28.315156     1010.142190     1     0     0     0     8   1.560
       184.312322       98.964802      305.723946     2     0     0     0     4   1.960
       162.152748      144.936607      469.230202     1     0     0     0     6   1.560
        39.468246      133.000359      517.405190     1     0     0     0     8   1.560
        41.335336      199.549990      368.102700     1     0     0     0     8   1.560
       148.830656       47.108428      299.986443     2     1     0     0     1   1.963
       151.046938       14.908414      298.176525     2     0     0     0     6   1.960
       153.520554      123.836734      888.117715     1     0     0     0     5   1.560
        18.019185       32.266640      609.285215     1     1     0     0     8   1.558
       162.390090      164.574451      333.765304     1     1     0     0     5   1.558
        84.493614      146.467834      628.397683     1     0     0     0     5   1.560
       102.025180      115.755215      136.610207     1     1     0     0     5   1.558
       153.102571      140.105289       21.705201     1     0     0     0     1   1.560
       154.117045      191.786864      771.445229     1     0     0     0     3   1.560
        84.084886      102.240768      354.175200     1     0     0     0     4   1.560
        38.171515      198.523442      763.077676     1     1     0     0     5   1.558
        50.576989      171.668368      389.377694     1     1     0     0     5   1.558
       189.568849      151.898997      528.234387     1     0     0     0     7   1.560
       192.722022      115.569043      831.552712     1     1     0     0     4   1.558
        32.244603       40.345499      798.874406     1     1     0     0     2   1.558
       136.080438       67.232173      339.125191     1     0     0     0     3   1.560
       176.829101       36.578842      505.365212     1     0     0     0     2   1.560
       159.617007      126.444572       99.322701     1     0     0     0     7   1.560
       117.084713      157.534222      483.370187     1     1     0     0     2   1.558
       160.835353      117.149167       70.590203     1     0     0     0     8   1.560
       111.594882      181.026104      531.855202     1     1     0     0     3   1.558
       125.445137       36.263179       19.682700     1     0     0     0     4   1.560
        11.473730      162.775935      132.445199     1     0     0     0     8   1.560
        92.524608       22.131667      436.820199     2     0     0     0     4   1.960
        86.828564      108.266935       76.573329     4     0     0     0     5   2.470
         7.238770       29.555879      247.097446     1     1     0     0     1   1.558
       123.833415       39.655374      289.160195     1     0     0     0     3   1.560
       186.679917      155.462370      319.502694     1     0     0     0     2   1.560
        88.511567      139.800437      569.861041     1     0     0     0     1   1.560
       142.071291       59.071163     1072.920205     1     0     0     0     6   1.560
       171.547689       71.163859      489.798943     2     1     0     0     6   1.963
        76.130549      129.523242       47.740201     1     0     0     0     2   1.560
        74.956637      130.326687      411.152688     2     0     0     0     8   1.960
        48.903570       47.963384      671.500222     1     2     0     0     3   1.558
        35.372929       24.683554      854.067727     1     2     0     0     3   1.558
        62.988193       77.323458      605.962685     1     0     0     0     5   1.560
        50.852815       16.982177      165.680199     1     0     0     0     8   1.560
        77.214721      110.133830      345.170205     1     0     0     0     6   1.560
       106.998834      105.974116      592.145180     1     1     0     0     6   1.558
        87.045681      108.291149       38.580980     1     0     0     0     2   1.560
       177.637388       17.582744      851.255227     1     0     0     0     2   1.560
       190.764683      160.411586      858.442727     1     1     0     0     4   1.558
       124.238833      121.149369      469.703530     1     0     0     0     3   1.560
        14.084095      128.688350      285.692696     1     0     0     0     8   1.560
        93.376874        3.372620       14.446212     1     0     0     0     4   1.560
         7.176690      143.405344      897.375222     1     1     0     0     3   1.558
        42.578558       98.675190      690.722817     1     0     0     0     4   1.560
        34.109142      109.856367      629.225198     1     0     0     0     5   1.560
       184.008577       18.730885      312.252665     1     0     0     0     3   1.560
       194.587224      165.127228      177.774478     1     0     0     0     8   1.560
       129.746695       83.079825      451.317696     1     0     0     0     6   1.560
       119.463779       74.273888      684.506448     2     0     0     0     2   1.960
       158.454627       66.699714      356.420205     1     0     0     0     7   1.560
       187.008194      150.697573      737.131895     1     0     0     0     7   1.560
       142.494907      179.954613     1034.655190     1     0     0     0     6   1.560
       178.741392       14.830791      854.893929     2     0     0     0     4   1.960
        88.103368       81.607559      192.630196     1     0     0     0     7   1.560
       111.160499      101.612316      370.912698     1     0     0     0     4   1.560
        38.927400      107.167220      673.488657     1     1     0     0     6   1.558
       190.413815      135.991778      251.949364     1     0     0     0     1   1.560
        57.114327       86.434286       83.382699     1     0     0     0     5   1.560
       195.259773       12.000484      139.485207     1     0     0     0     2   1.560
        42.135891      128.949228      591.392678     1     0     0     0     4   1.560
       142.516816      156.466808      888.400185     1     0     0     0     3   1.560
        98.307473      188.540507      203.131598     1     0     0     0     8   1.560
       113.996027       67.668455      373.762704     1     0     0     0     8   1.560
        91.303339      155.680596      218.260201     1     0     0     0     5   1.560
       127.869015       58.452360      558.017678     1     0     0     0     5   1.560
       190.637806      112.932755      628.909381     1     0     0     0     7   1.560
        47.925209       48.531063      525.963560     1     0     0     0     5   1.560
        15.867216       45.860236      207.450540     1     0     0     0     5   1.560
        79.234314      126.540159      554.323546     1     0     0     0     6   1.560
       129.943268      117.218683      437.689470     1     0     0     0     8   1.560
       190.185545       34.462445      385.293954     2     0     0     0     4   1.960
       101.437870        5.106372      458.787698     1     3     0     0     2   1.558
       140.146785       10.344261      729.267678     1     0     0     0     5   1.560
       187.569578       38.084393      386.767709     1     0     0     0     7   1.560
        40.530495      144.452825      510.127365     1     0     0     0     6   1.560
       166.657243       90.144246      175.725198     1     0     0     0     2   1.560
       116.326724       21.037908      112.221452     2     0     0     0     8   1.960
       149.556634       58.733747      977.842690     1     0     0     0     2   1.560
         4.804215       89.150958      358.422707     1     0     0     0     8   1.560
       114.429195      116.830486      680.655190     1     2     0     0     7   1.558
       192.900711      114.823736     1222.888222     1     5     0     0     3   1.558
        99.438720       92.295817      433.911462     2     0     0     0     5   1.960
        11.282300      166.387394     1046.727212     1     0     0     0     7   1.560
       159.143960        1.094595      159.728648     1     0     0     0     8   1.560
       194.083193       50.399708      395.191461     1     1     0     0     8   1.558
        92.910544       86.542213      548.187722     1     0     0     0     5   1.560
        87.167285      162.122121      258.664436     1     1     0     0     8   1.558
        87.007996      122.200602      207.408256     1     1     0     0     8   1.558
         0.154568       53.447268      333.992684     1     1     0     0     7   1.558
       186.833971       48.728266      675.985207     1     0     0     0     4   1.560
       179.172437       20.756673      836.635171     1     0     0     0     3   1.560
       193.278953      118.358269      261.962685     1     0     0     0     7   1.560
       165.106584      102.549683      156.593540     1     0     0     0     1   1.560
        90.057184      127.493162      471.720193     1     0     0     0     2   1.560
       164.616912      105.347264      469.643945     2     0     0     0     8   1.960
       192.142496       64.247419       56.622700     1     0     0     0     3   1.560
       108.047836      189.106003      389.712685     1     0     0     0     6   1.560
       128.166912      128.844142      713.878416     1     0     0     0     1   1.560
       170.858171      125.436368      161.785195     1     0     0     0     8   1.560
       106.884724      143.436475      390.145180     1     2     0     0     8   1.558
        75.665700        5.159563      749.410195     1     0     0     0     8   1.560
        53.892416       30.703759      471.557687     1     1     0     0     7   1.558
       101.919801      180.017297      586.392678     1     0     0     0     4   1.560
       168.624510       68.808786      326.627277     2     0     0     0     8   1.960
        93.116175       58.204483      455.803508     1     0     0     0     7   1.560
       111.514532       76.881519      285.525185     1     0     0     0     3   1.560
       161.743211      141.792184      571.946877     2     0     0     0     3   1.960
       162.848072      140.035286      575.266158     1     1     0     0     8   1.558
       162.798192      129.042012      544.275185     1     0     0     0     5   1.560
       152.836097      197.361199      679.470193     2     1     0     0     8   1.963
        63.129993      116.731697      866.704781     2     0     0     0     3   1.960
       112.267565       96.157787      521.741880     1     0     0     0     8   1.560
         6.781860      115.020211      829.292702     1     0     0     0     5   1.560
       187.237303      191.087004      271.187691     1     0     0     0     4   1.560
        17.136392       19.274310      350.910195     1     0     0     0     3   1.560
       123.956475      166.144007      110.232697     1     0     0     0     2   1.560
       113.048869      106.754060      695.085183     1     0     0     0     6   1.560
       115.058105       23.706452      115.070199     1     0     0     0     7   1.560
       100.363557        4.470665      763.854328     1     0     0     0     7   1.560
        45.549604      111.269382      712.457680     1     0     0     0     3   1.560
       105.067747      159.121624      422.000191     1     0     0     0     1   1.560
        51.422024      172.541013      495.067696     1     0     0     0     3   1.560
       131.780290       59.283176      631.270180     1     2     0     0     3   1.558
       122.475036       43.893785      285.930215     1     0     0     0     5   1.560
         8.281346      146.955332       77.118947     2     0     0     0     8   1.960
       191.624106       86.075323      160.556701     3     0     0     0     7   2.250
        83.519265       89.086965      653.047707     2     1     0     0     3   1.963
        78.960629       69.346319       78.737702     1     0     0     0     4   1.560
       169.636246      124.823077      489.430215     1     0     0     0     2   1.560
       195.020993      140.070109       23.122700     1     0     0     0     8   1.560
        42.537681        4.135803      549.787698     1     0     0     0     1   1.560
       130.054192       24.890460      830.074359     1     0     0     0     4   1.560
       162.893205       84.960408      171.005196     1     0     0     0     6   1.560
        37.701257      172.403533      176.037698     1     0     0     0     5   1.560
       173.810030       99.848800     1097.700126     1     4     0     0     6   1.558
        16.117490      139.755650        9.795200     1     0     0     0     2   1.560
       162.261671      131.474488      352.631875     1     0     0     0     1   1.560
        25.253017      116.893937      837.072671     1     0     0     0     8   1.560
       163.248856       95.112338      422.995187     1     0     0     0     5   1.560
        32.671444      166.344165      141.920205     1     0     0     0     8   1.560
       133.262224        0.951221      158.462701     1     1     0     0     7   1.558
        70.449228      160.331513      607.998155     1     1     0     0     7   1.558
        98.660296       17.712530       41.152424     2     0     0     0     5   1.960
        38.225232       46.755259      391.809365     3     0     0     0     1   2.250
       175.888632      150.511212      709.457740     1     2     0     0     8   1.558
       111.807741      189.037317      327.227700     1     0     0     0     4   1.560
        21.934718      110.039703      173.775201     1     0     0     0     2   1.560
        16.672628      149.196741      328.522713     1     0     0     0     8   1.560
        16.038567      188.903677      677.599384     1     0     0     0     6   1.560
       165.150406        4.747339       42.432702     1     0     0     0     4   1.560
        60.627369       77.723179      224.792702     1     0     0     0     1   1.560
       104.897082      166.818757      482.710211     2     1     0     0     7   1.963
       195.546761       50.610945      734.145180     1     0     0     0     6   1.560
       184.889524       30.744549      688.282693     1     0     0     0     8   1.560
       172.255495      146.576482      173.395196     1     0     0     0     5   1.560
       117.300267      196.957626      505.020196     2     0     0     0     5   1.960
       136.851461      183.521400      326.702396     2     0     0     0     3   1.960
        43.426312      173.554317      764.992715     1     0     0     0     1   1.560
         9.700738       44.657297      370.392709     1     0     0     0     2   1.560
        72.490381       23.839848      324.607705     1     0     0     0     2   1.560
        86.773076      113.168606      260.442696     1     0     0     0     6   1.560
       126.778587       55.846269      156.672707     1     0     0     0     3   1.560
       195.267673      152.301875      933.295205     1     0     0     0     8   1.560
        37.853943       24.412411      603.955178     1     0     0     0     5   1.560
        10.578810       11.684717      414.130196     1     0     0     0     3   1.560
       107.305330       82.761059      206.217705     1     0     0     0     4   1.560
        65.075909      107.406308      570.332660     1     0     0     0     8   1.560
       159.938985       65.125960      299.105202     1     0     0     0     3   1.560
       137.915876      103.276617      188.187707     1     0     0     0     1   1.560
        77.648453      178.444749       42.657700     1     0     0     0     5   1.560
       133.573992      131.393796      139.041451     2     0     0     0     3   1.960
        38.823221       13.781396      253.202706     1     0     0     0     2   1.560
        27.742268      198.379837      946.365212     1     2     0     0     7   1.558
        14.075448       37.417716      259.710213     1     1     0     0     5   1.558
       185.907228        2.210347      534.630227     1     0     0     0     2   1.560
        81.813638       32.962340     1036.337197     1     0     0     0     7   1.560
        92.740274        8.406268      447.857705     1     0     0     0     1   1.560
       162.683361      118.265276      741.617715     1     1     0     0     4   1.558
        40.852532       72.265729      802.122720     1     0     0     0     2   1.560
        60.867586       71.918989      491.050210     1     0     0     0     1   1.560
        45.313370       35.241831      253.212701     1     0     0     0     1   1.560
       116.426555       23.189819      496.440194     1     0     0     0     4   1.560
       167.419079       12.647893      167.249385     2     0     0     0     5   1.960
        13.603519       55.218494       49.603533     1     0     0     0     8   1.560
       117.361132      104.431696      197.935975     1     1     0     0     6   1.558
       113.577208       75.798329       51.379090     1     0     0     0     7   1.560
        58.428730      134.493831       12.630200     1     0     0     0     1   1.560
       131.756822       19.230500      470.395211     1     0     0     0     6   1.560
        53.451572      123.914313     1064.008218     1     2     0     0     3   1.558
       179.108066      149.303292      146.392693     1     0     0     0     2   1.560
       143.729298       51.505840       51.722699     1     0     0     0     5   1.560
       133.543130      140.736912      126.031412     1     0     0     0     4   1.560
       105.032637      160.443725      345.062691     1     0     0     0     7   1.560
        50.127105        3.853938      545.312681     1     0     0     0     2   1.560
        72.422666       54.820353     1410.095254     1     4     0     0     1   1.558
        29.059675      152.523163      102.087708     1     0     0     0     7   1.560
       157.327396       10.554399      674.880227     1     3     0     0     3   1.558
       151.078280      159.049161      632.862710     1     0     0     0     5   1.560
         8.132501      191.868006      573.312722     1     0     0     0     4   1.560
        90.139778       49.816402      111.690202     1     0     0     0     3   1.560
         6.884252      176.927597      681.765176     1     0     0     0     8   1.560
       165.519218       88.724332     1091.472207     1     0     0     0     5   1.560
       118.759401       42.872381      110.452698     1     0     0     0     2   1.560
       163.726635       84.990019      356.327706     1     0     0     0     8   1.560
        39.059880      195.255843       19.404460     1     0     0     0     2   1.560
        62.006403        4.696346       22.700200     1     0     0     0     3   1.560
       106.424390      174.972865      353.667702     1     0     0     0     7   1.560
        67.347536       49.538397      100.111447     2     0     0     0     1   1.960
        98.117278       15.522900       18.232700     1     0     0     0     5   1.560
       154.966759      118.406370      244.532700     4     0     0     0     1   2.470
       173.684632       24.655969       15.331927     1     0     0     0     2   1.560
       154.446264      112.677998      679.200173     1     0     0     0     6   1.560
        98.252638      188.790654       91.392701     1     0     0     0     1   1.560
       138.063391       97.427916      212.325204     1     0     0     0     6   1.560
        65.039343      163.675963       25.480201     1     0     0     0     5   1.560
       115.060770      104.256655      417.936867     1     0     0     0     2   1.560
       187.546516       50.377296      320.942989     1     0     0     0     7   1.560
        11.024773       20.893245      376.735207     1     0     0     0     1   1.560
        59.255412      177.182766      846.510171     1     0     0     0     4   1.560
       187.493916       60.806827      733.155190     1     1     0     0     3   1.558
        51.326859      158.700181      179.312702     1     0     0     0     3   1.560
        81.354035      140.141420      273.092690     1     0     0     0     6   1.560
       187.364349       78.571577      340.209377     1     0     0     0     4   1.560
        94.979787       44.544786      325.077706     1     0     0     0     8   1.560
        27.896774      191.903221       68.556057     1     0     0     0     5   1.560
       112.802074       19.205311      461.892709     1     0     0     0     5   1.560
        51.587844      160.064444      187.422707     1     0     0     0     5   1.560
       103.518569       61.469792     1146.092202     1     1     0     0     4   1.558
        10.478843       50.602659      463.227700     1     0     0     0     3   1.560
       129.652200       47.710594      630.807621     1     0     0     0     7   1.560
       173.542989       28.677962      480.332711     1     0     0     0     5   1.560
       192.096701      100.102385     1236.130166     1     0     0     0     1   1.560
       166.541228       92.293196       63.330224     1     0     0     0     4   1.560
       132.123701       75.638063      397.241026     1     0     0     0     8   1.560
        21.408937       10.130023      945.758808     2     0     0     0     7   1.960
        39.097275        4.819083      275.952706     1     0     0     0     7   1.560
        92.800708      146.838764      517.748796     1     0     0     0     8   1.560
         2.682159      121.995987      141.316453     2     0     0     0     7   1.960
       153.392982       77.163315      628.062722     1     2     0     0     3   1.558
       180.838417       88.278235      732.340188     1     1     0     0     8   1.558
       182.588310       12.010672      470.390206     1     0     0     0     4   1.560
       182.443889      160.756166      193.476086     3     0     0     0     6   2.250
        65.227873       27.008121      109.372697     1     0     0     0     1   1.560