ITEM: TIMESTEP
0
ITEM: NUMBER OF ATOMS
         115
ITEM: BOX BOUNDS pp pp pp
  0.0000000E+00   200.000000000000     
  0.0000000E+00   200.000000000000     
  0.0000000E+00   5000.00000000000     
ITEM: ATOMS x y z f1 f2 f3 f4 orient radius
       113.047142       55.032526      175.782693     1     0     0     0     3   1.560
       198.615135      139.248590      344.455209     1     0     0     0     3   1.560
        31.603748      152.012359      554.347714     1     0     0     0     4   1.560
       159.996186      130.773283      982.735207     1     0     0     0     3   1.560
         1.160002      138.625435      612.012673     1     2     0     0     6   1.558
        72.275704      163.270861      239.999367     1     0     0     0     5   1.560
       116.058602      104.097346     1072.205239     1     0     0     0     8   1.560
         9.754464      168.238838      118.867699     1     0     0     0     6   1.560
        62.267246       31.175367      578.032693     1     0     0     0     4   1.560
       179.199371       49.261190      101.460198     1     0     0     0     4   1.560
       131.430899        0.575212      551.697671     1     0     0     0     6   1.560
       192.524448      193.156939      226.448952     2     1     0     0     2   1.963
        38.598606       35.076983     1034.850259     1     0     0     0     6   1.560
       111.391510      146.977132      519.042702     1     1     0     0     4   1.558
        91.987555       24.278417      222.245202     1     0     0     0     8   1.560
        20.383551      103.054418      165.677697     1     0     0     0     1   1.560
       174.590102       94.344275      141.037698     1     0     0     0     5   1.560
        67.076407      100.521361      962.402688     1     0     0     0     6   1.560
        61.990272      149.307383      130.911032     1     0     0     0     6   1.560
       169.130095       89.736783      182.495202     1     0     0     0     4   1.560
        22.966079      133.688269      245.867699     1     0     0     0     1   1.560
       132.718154      189.936316      386.040200     1     0     0     0     1   1.560
        68.495940       25.725410      556.782693     1     0     0     0     1   1.560
       112.094515      186.929450      289.232695     2     0     0     0     5   1.960
       119.388186      185.670762      269.082711     1     0     0     0     1   1.560
        33.052127       75.386583      110.365197     1     0     0     0     1   1.560
        27.268191       73.534776      110.115197     1     0     0     0     6   1.560
        39.645848      119.650101      920.875222     1     0     0     0     3   1.560
       106.850821      112.365853      160.517486     1     1     0     0     3   1.558
       103.629532      134.597348      132.626031     1     0     0     0     5   1.560
       171.408600       55.439669      262.057687     1     0     0     0     8   1.560
        97.510229      131.895342      134.668954     2     0     0     0     5   1.960
       199.780248       16.061419       61.182702     1     0     0     0     7   1.560
        11.032073       23.237495      561.655190     1     0     0     0     5   1.560
        76.129580      186.914442      813.925210     1     0     0     0     3   1.560
        51.891936      163.045479      585.412698     1     0     0     0     3   1.560
        85.608000       48.933418      536.402688     1     0     0     0     6   1.560
       101.819914      132.641426      504.395211     1     0     0     0     6   1.560
        67.923618      164.255082      154.645196     1     0     0     0     4   1.560
       162.583361      165.091172      334.135201     2     0     0     0     1   1.960
       116.343391       20.621318      111.150201     1     0     0     0     4   1.560
       104.897082      166.818757      482.710211     2     0     0     0     1   1.960
        55.564306      170.985369       82.620202     1     1     0     0     4   1.558
        46.802150      194.703940      246.545205     1     0     0     0     7   1.560
        16.961489      196.394545     1050.652261     1     0     0     0     6   1.560
       188.053530       41.474501      721.530190     1     0     0     0     8   1.560
       132.994637      168.285335      863.247720     1     0     0     0     8   1.560
        71.892487      147.107760      237.762704     1     0     0     0     1   1.560
        90.309624       55.210389      234.332696     1     0     0     0     4   1.560
       112.821587       35.072450      228.537698     2     0     0     0     8   1.960
       147.473997      145.583291       88.842713     1     0     0     0     3   1.560
       147.878050      141.719277       83.767701     1     0     0     0     1   1.560
        80.618040      141.983315       83.847703     1     0     0     0     2   1.560
       161.682005      117.619302       91.822701     1     0     0     0     5   1.560
       138.938606      119.945369      736.757729     1     0     0     0     8   1.560
        95.177038      184.001315      196.652703     1     0     0     0     8   1.560
       122.965051      118.772494      423.100198     1     0     0     0     4   1.560
        29.196984      103.804476      512.362710     1     0     0     0     1   1.560
        56.508996        5.016512      321.922707     1     0     0     0     7   1.560
        50.576989      171.668368      389.377694     1     0     0     0     5   1.560
        21.497033       21.448397      336.875191     1     0     0     0     1   1.560
         7.152192       83.333219     1293.782143     1     2     0     0     2   1.558
       172.189001       27.381320      344.410195     1     0     0     0     8   1.560
        90.780880       47.989433      282.082691     1     0     0     0     2   1.560
       126.473394      156.885509      503.018007     1     0     0     0     7   1.560
       178.637048       56.168490      172.980202     1     1     0     0     1   1.558
       192.722022      115.569043      831.552712     1     0     0     0     4   1.560
        84.174533      181.992999      695.827676     1     1     0     0     1   1.558
       179.897392       37.453841      195.450204     1     0     0     0     1   1.560
        98.347202      101.381391      108.811005     1     0     0     0     3   1.560
        62.575988       23.877361      628.115212     1     0     0     0     8   1.560
        72.701354       64.970826      319.911863     1     0     0     0     2   1.560
        87.714933      126.356346      478.747681     1     1     0     0     3   1.558
       157.331258      137.297637      422.625191     1     0     0     0     1   1.560
        74.778264       88.256917      119.220200     1     0     0     0     8   1.560
       167.415270       39.832730      163.390177     1     0     0     0     3   1.560
       142.951253      171.165679      448.402688     1     1     0     0     3   1.558
        45.212555       79.535738      322.270211     1     0     0     0     8   1.560
       137.476941      134.947296      189.888509     1     0     0     0     3   1.560
        53.312531       87.551729      173.230202     1     0     0     0     2   1.560
       127.048493      134.479708      190.745202     1     0     0     0     7   1.560
        14.960480       84.739718      301.810189     1     0     0     0     6   1.560
       100.401420       96.437850      110.077698     1     1     0     0     3   1.558
        83.697952      178.355780      263.914809     3     0     0     0     1   2.250
       132.973436      114.629989      103.822701     1     0     0     0     1   1.560
        76.533494      169.381942      251.837701     1     0     0     0     1   1.560
       108.016956       31.562964      129.737702     1     0     0     0     7   1.560
        64.044910      111.098974       19.350199     1     0     0     0     7   1.560
       184.312322       98.964802      305.723946     2     0     0     0     4   1.960
        45.657811       42.694169      671.967690     1     3     0     0     8   1.558
       174.913318      140.423203      374.245202     2     0     0     0     1   1.960
        33.961291      167.399155      612.285195     1     0     0     0     7   1.560
        15.354187       20.831560      321.947701     1     0     0     0     5   1.560
       151.046938       14.908414      298.176525     2     0     0     0     6   1.960
        46.349059      196.196748      232.070199     1     0     0     0     2   1.560
        54.051517       73.666337      810.947671     1     0     0     0     8   1.560
       165.508142       12.161967      633.598885     2     0     0     0     3   1.960
       154.818214      177.532911      802.647683     1     1     0     0     7   1.558
        97.182649      135.061344      448.212685     1     0     0     0     1   1.560
       153.102571      140.105289       21.705201     1     0     0     0     1   1.560
       134.854524      178.769351      478.257699     1     0     0     0     5   1.560
        11.687464       32.351806      526.567727     1     0     0     0     3   1.560
       174.039043        0.128577      401.504315     1     1     0     0     1   1.558
       166.423177      181.941680      404.295205     1     2     0     0     6   1.558
       157.327396       10.554399      674.880227     1     1     0     0     8   1.558
       150.619288      152.581052      114.560197     1     0     0     0     5   1.560
       163.999293      119.105222      111.977700     1     0     0     0     3   1.560
       192.087306       14.673215       50.240201     1     0     0     0     3   1.560
       121.823390      170.413083      200.565194     1     0     0     0     8   1.560
       120.587306      165.901120      200.797707     1     0     0     0     2   1.560
        37.203273       40.677243      201.670205     1     0     0     0     4   1.560
       160.835353      117.149167       70.590203     1     0     0     0     8   1.560
        34.657313       86.983273      158.343949     2     0     0     0     1   1.960
       149.194138      101.079670      486.961027     1     0     0     0     8   1.560
        27.867710      123.363237      561.232705     1     1     0     0     8   1.558
