ITEM: TIMESTEP
0
ITEM: NUMBER OF ATOMS
        5065
ITEM: BOX BOUNDS pp pp pp
  0.0000000E+00   200.000000000000     
  0.0000000E+00   200.000000000000     
  0.0000000E+00   5000.00000000000     
ITEM: ATOMS x y z f1 f2 f3 f4 orient radius
        31.924905      198.788663      277.109064     2     2     0     0     2   1.963
       158.098143      143.964096        6.697700     1     0     0     0     2   1.560
       171.769019       59.140303      282.723047     1     4     0     0     5   1.558
       124.838481       95.745245      148.592698     2     1     0     0     8   1.963
       187.064036       83.452523       98.601032     1     0     0     0     4   1.560
        93.467380      185.694078      805.610085     1     1     0     0     2   1.558
       123.377323      135.300367       83.743740     2     0     0     0     4   1.960
       190.064073      151.732635      161.557702     1     0     0     0     8   1.560
        14.633744       52.922800       10.675794     4     0     0     0     5   2.470
        89.853221       32.002670      332.922707     1     1     0     0     1   1.558
        38.142070       39.927781      886.470193     1     0     0     0     2   1.560
       179.231866       39.203983      334.573384     1     2     0     0     1   1.558
       136.860440      184.581995      597.205550     1     1     0     0     7   1.558
        39.307998      150.960437      391.432687     1     2     0     0     8   1.558
        69.565433        8.089856     1083.217202     1     6     0     0     5   1.558
       166.051440      198.441327      265.782693     1     4     0     0     3   1.558
       171.472822       42.543477       79.471418     1     0     0     0     4   1.560
        59.173236       53.326402       84.775201     2     0     0     0     7   1.960
       140.203620      166.967520      893.920205     1     0     0     0     1   1.560
        78.370509       64.377903      169.436862     1     1     0     0     8   1.558
        83.058140       27.106744      526.797707     1     0     0     0     2   1.560
       169.321825      174.336372      207.896006     1     1     0     0     8   1.558
       150.005838       56.130733       79.160203     1     0     0     0     3   1.560
        96.344289      151.417360      580.027688     1     2     0     0     5   1.558
        80.938512       39.767754     1056.807575     1     6     0     0     8   1.558
       137.013179        9.714630      610.057717     1     0     0     0     8   1.560
       116.966375       69.695044      146.573945     2     0     0     0     1   1.960
       168.793557       43.103825      256.857416     1     1     0     0     8   1.558
       138.530066       68.736720      538.600198     1     0     0     0     6   1.560
        41.505207      130.958565       25.300200     1     0     0     0     1   1.560
       176.098587       45.723658      934.585183     1     3     0     0     3   1.558
         0.708661       94.716122      487.035195     1     0     0     0     4   1.560
        59.173519       94.122998       75.496875     1     0     0     0     1   1.560
       155.035965       36.137644     1077.693417     1     4     0     0     6   1.558
       181.608698      129.436603      402.582310     2     2     0     0     6   1.963
         1.599076       92.427368       26.583946     1     0     0     0     4   1.560
       165.624484       57.324910      103.432702     1     0     0     0     8   1.560
       160.539512      183.743826     1168.123208     1     6     0     0     1   1.558
        36.331121      177.583596      918.425210     1     4     0     0     7   1.558
        20.133219       66.380311       35.014316     1     0     0     0     3   1.560
       167.389372       13.645646      659.504847     1     4     0     0     7   1.558
       191.748746       13.517993      713.757729     1     3     0     0     5   1.558
        77.544516       17.702483      247.309343     1     1     0     0     3   1.558
       189.389851      185.877489      143.673536     1     1     0     0     1   1.558
       174.498326       44.310679      968.185220     1     1     0     0     1   1.558
        69.699998       25.678411      928.610207     1     6     0     0     7   1.558
        10.234394        1.202226       74.486031     1     0     0     0     7   1.560
       111.328943       13.947904      262.965188     1     0     0     0     3   1.560
       103.910611      119.392693      311.905190     1     0     0     0     2   1.560
       165.381501      141.118950      741.143011     1     0     0     0     6   1.560
       103.732922      116.501331      160.932702     1     1     0     0     7   1.558
        65.407644      109.375060      687.602700     1     3     0     0     3   1.558
       101.475520      116.284958      368.635201     1     3     0     0     1   1.558
        32.044820      181.501486       43.307698     1     0     0     0     3   1.560
       106.859656       48.568920     1083.635171     1     4     0     0     4   1.558
       196.900650      101.803980       18.731867     1     0     0     0     7   1.560
         7.015387      117.544346       28.755200     1     0     0     0     2   1.560
        27.179166       67.847595      466.930166     2     1     0     0     5   1.963
        14.178121       28.169575      123.334928     1     0     0     0     8   1.560
       161.795296       27.319629       31.111059     1     0     0     0     8   1.560
       168.876328        0.682070      333.445199     1     0     0     0     1   1.560
       154.957321       94.629012       70.607697     1     1     0     0     1   1.558
       155.978555      189.242596      178.169626     1     1     0     0     5   1.558
       192.369084       90.651010      232.924285     1     2     0     0     5   1.558
       133.214320      117.825086      460.817696     1     1     0     0     7   1.558
       131.751318       98.230258      791.775230     1     6     0     0     4   1.558
        87.657901      166.927533      635.777688     1     0     0     0     4   1.560
        84.749835       40.867527       41.197701     1     0     0     0     7   1.560
         9.626334      192.926264      732.257729     1     6     0     0     2   1.558
       195.499465       74.605032      380.462685     1     2     0     0     2   1.558
        30.852935      127.550627      154.440194     1     0     0     0     4   1.560
       156.911625      160.394380      356.153532     1     1     0     0     5   1.558
       108.600999      114.985628      940.672707     1     0     0     0     4   1.560
        54.653038       98.496579      434.250191     1     2     0     0     4   1.558
       119.930846      128.644798       82.145149     1     1     0     0     7   1.558
        56.543688      186.903811       33.655200     1     0     0     0     4   1.560
        42.308892      136.451974      413.172707     1     2     0     0     7   1.558
       103.965554        4.674581      257.667702     1     0     0     0     4   1.560
       126.643522      117.266888      677.477700     1     5     0     0     1   1.558
       102.130987      100.522257     1094.387246     1     5     0     0     5   1.558
       132.963983      187.542643       44.056563     1     0     0     0     2   1.560
        60.533158       24.696091      304.435946     3     0     0     0     2   2.250
        62.450850       66.938882     1107.565224     1     1     0     0     2   1.558
       116.921711       40.856817      815.517678     1     6     0     0     1   1.558
        42.473248       44.459272      154.657693     1     0     0     0     5   1.560
       132.689956       98.562226       79.121280     1     1     0     0     4   1.558
       109.016166      116.966683      160.875207     1     0     0     0     7   1.560
       174.906354       44.509504      924.757729     1     1     0     0     7   1.558
        96.742213      137.877102      451.245187     1     2     0     0     1   1.558
       102.100666      141.001426      232.542702     1     1     0     0     1   1.558
        40.178602       28.422857       90.455193     1     0     0     0     6   1.560
        31.777767       37.877615      385.248515     1     4     0     0     5   1.558
       141.769696       45.154562      672.055215     1     3     0     0     8   1.558
        72.893515       22.435824     1192.173257     1     3     0     0     7   1.558
       165.708101      180.945761      457.947701     1     4     0     0     2   1.558
       130.558707       60.302812      361.526864     1     1     0     0     3   1.558
       146.173311       66.303783       37.870202     1     0     0     0     2   1.560
       127.240706       60.876104      252.560204     1     0     0     0     8   1.560
       116.105727      195.429520       18.297700     1     0     0     0     2   1.560
        77.571210      140.616400      133.658699     1     0     0     0     5   1.560
         5.689573      136.248377      287.993063     1     1     0     0     4   1.558
       179.019445       80.548019      127.740197     2     0     0     0     6   1.960
       113.415075       87.799689       11.910200     1     0     0     0     4   1.560
        57.584110      189.709383      305.940194     1     1     0     0     5   1.558
       175.431148        5.551862       42.072701     1     0     0     0     5   1.560
        31.238322       41.041721      506.528514     1     5     0     0     1   1.558
       144.726258       24.451703      152.842705     2     1     0     0     3   1.963
       119.240708      160.856538      863.565224     1     5     0     0     5   1.558
       134.453674      132.706420      113.941031     1     1     0     0     3   1.558
         2.600528      146.279481      322.630207     1     1     0     0     6   1.558
        42.411365      162.572055      369.618518     1     1     0     0     1   1.558
       163.844296       34.250108      275.157693     1     0     0     0     3   1.560
        25.608356      163.069386      866.256330     1     6     0     0     2   1.558
        23.146901        6.564641      585.948373     1     5     0     0     2   1.558
       139.847678       87.490739      574.602700     1     6     0     0     2   1.558
        59.137235       62.557055      442.430215     1     1     0     0     6   1.558
       166.014915       14.657485      149.769683     1     0     0     0     8   1.560
        89.491735      174.309881      241.485207     1     0     0     0     5   1.560
       104.017445      109.361004      212.630196     1     0     0     0     1   1.560
       136.466309       91.499615       81.572701     2     0     0     0     5   1.960
         9.724814      172.884348      202.160195     1     1     0     0     6   1.558
        80.408350       81.915289      185.545205     1     2     0     0     5   1.558
        60.420806      191.127138      686.287698     1     2     0     0     1   1.558
        97.007378       81.705580      740.610207     1     2     0     0     7   1.558
        93.556340       95.328097      671.026738     1     6     0     0     3   1.558
        51.189952      147.389852      156.130427     1     3     0     0     3   1.558
        72.263218      145.933327      113.608529     1     0     0     0     8   1.560
         2.107244      185.179543      910.255227     1     3     0     0     3   1.558
        91.494072      149.436998      878.147683     1     4     0     0     7   1.558
       123.986233      169.073925      942.647683     1     1     0     0     4   1.558
       104.985872       66.104467      160.905205     1     0     0     0     2   1.560
        58.412019      169.596550       19.442700     1     0     0     0     1   1.560
       122.109989      131.765432      406.218941     2     0     0     0     1   1.960
       196.566221       87.718117      109.832703     1     3     0     0     4   1.558
        61.295992      191.934724      515.537698     1     2     0     0     5   1.558
       131.432692      136.101689      418.352808     2     0     0     0     2   1.960
       189.974973      184.750737      291.930215     1     1     0     0     5   1.558
       164.165688      171.383289      203.884560     2     0     0     0     6   1.960
        91.396724       58.183504      228.445199     1     0     0     0     1   1.560
       181.624638       82.226586      350.339045     2     2     0     0     8   1.963
       101.602671       71.220770      714.212685     1     2     0     0     2   1.558
       194.111085      196.175185      230.171336     2     3     0     0     7   1.963
       124.932307      154.927513      132.648678     1     2     0     0     5   1.558
        39.078365      169.521361      364.785195     1     0     0     0     5   1.560
       121.288828       30.030499      391.160195     1     0     0     0     2   1.560
         2.313633      187.089494      499.717690     1     1     0     0     2   1.558
        90.757798       12.196089      941.280190     1     6     0     0     2   1.558
       104.679743       86.232390      998.452676     1     0     0     0     8   1.560
        23.939309       15.054594      364.097695     2     0     0     0     2   1.960
       107.747463      191.389979      705.720315     1     5     0     0     5   1.558
        69.251840      120.030124       87.100981     1     1     0     0     2   1.558
       151.981970       68.960719      253.012704     1     0     0     0     4   1.560
        31.935791      118.791799       33.589872     1     0     0     0     4   1.560
        69.556987      140.174447      904.815224     1     3     0     0     7   1.558
         8.786699       86.683787       60.006942     1     1     0     0     8   1.558
         8.595399      124.657603      584.442727     1     0     0     0     7   1.560
       108.549219      182.667781      231.156944     1     0     0     0     2   1.560
       170.462972      156.972908      726.375222     1     0     0     0     3   1.560
        97.278432      103.661866      289.762704     1     1     0     0     1   1.558
       170.237572      162.095543      296.867613     4     0     0     0     6   2.470
       184.144956      139.945235      913.721383     2     3     0     0     3   1.963
       117.574688       85.032199      308.267709     1     1     0     0     1   1.558
       118.228592       51.779713      133.865197     1     1     0     0     1   1.558
       104.472303       89.249620       11.435200     1     0     0     0     4   1.560
        14.467955      109.952994      333.393313     1     0     0     0     1   1.560
       188.989124       80.592123      486.893135     1     5     0     0     4   1.558
       132.771208       45.975115      111.390198     1     1     0     0     7   1.558
        99.780679      152.798239     1143.998208     1     2     0     0     6   1.558
       184.780176      126.317779      388.350198     1     0     0     0     8   1.560
       173.553948      181.301843      587.732705     1     6     0     0     2   1.558
        14.563071      176.106122      977.317727     1     6     0     0     7   1.558
       129.430356       73.263369      127.919349     2     2     0     0     7   1.963
        69.051631       38.170430      515.751443     2     0     0     0     5   1.960
        58.725938      195.514849      216.658952     2     1     0     0     1   1.963
       162.041775      156.444391      165.633533     1     0     0     0     1   1.560
        65.154946      177.760199      114.047700     1     0     0     0     2   1.560
        61.765082       86.143067      194.500207     1     2     0     0     4   1.558
       133.064133      158.426484       21.880200     1     1     0     0     6   1.558
        58.908338       76.975934      544.812722     1     0     0     0     6   1.560
        69.513004      147.228295      842.537698     1     4     0     0     4   1.558
        31.079296        9.180255      263.225198     1     0     0     0     7   1.560
       180.354160       11.104045      281.307687     1     0     0     0     3   1.560
       172.766462      156.357168       87.420197     1     0     0     0     7   1.560
       168.128531      163.700557      698.447671     1     6     0     0     4   1.558
       167.199029        9.859138        7.040200     1     0     0     0     5   1.560
        11.648616      169.710381      129.385201     1     0     0     0     8   1.560
        36.182686      113.147883     1022.655190     1     3     0     0     1   1.558
       108.828583       80.932762      734.169676     1     6     0     0     4   1.558
       164.295130      126.130984      742.192727     1     3     0     0     1   1.558
        76.087767       71.477512      434.380196     1     0     0     0     7   1.560
        52.511855      155.653655      380.431392     1     0     0     0     4   1.560
       150.465878       23.220764      193.570199     1     0     0     0     5   1.560
         8.876056       32.005798      248.377694     1     0     0     0     5   1.560
       146.803926       63.850826       36.038040     1     1     0     0     3   1.558
       121.288740      124.623013       30.216449     2     0     0     0     5   1.960
        34.387309       15.000840      678.670205     1     2     0     0     4   1.558
        80.188338       54.008253      300.326109     1     5     0     0     6   1.558
        52.019655      182.561179      152.182702     1     0     0     0     5   1.560
        38.551979       62.220236      606.577676     1     1     0     0     4   1.558
       189.895214      174.334114      609.230216     2     3     0     0     6   1.963
         6.840922       38.977784       30.472701     1     0     0     0     3   1.560
        12.745691      119.909086      650.768774     1     4     0     0     5   1.558
       156.675039      130.936197      663.635171     1     6     0     0     8   1.558
       183.707310      112.459003      209.282693     1     2     0     0     2   1.558
       144.377346      120.555589      388.087685     1     0     0     0     4   1.560
        29.549977       27.563765       98.517701     1     2     0     0     7   1.558
        53.045743      168.080025      289.472695     1     2     0     0     3   1.558
        95.271355        6.332875      224.102687     1     2     0     0     2   1.558
        48.865181      173.763279       45.292699     1     0     0     0     3   1.560
       127.535643        6.815904      368.537698     1     3     0     0     2   1.558
        33.192874      163.606593      262.502694     1     2     0     0     4   1.558
       127.960267       78.692690      371.837685     1     2     0     0     2   1.558
       162.775105        1.659032      805.423943     2     0     0     0     6   1.960
       148.179327       95.567265      373.195199     1     0     0     0     8   1.560
       183.799221       48.548104      536.685220     1     0     0     0     3   1.560
        83.505673       56.862784      931.694334     1     0     0     0     2   1.560
        80.069486       22.628597      416.026452     2     2     0     0     2   1.963
       121.465862      111.135701      266.470193     1     0     0     0     6   1.560
        34.031202      135.506600      742.802712     1     5     0     0     5   1.558
        82.275262       98.354015      682.510171     1     2     0     0     6   1.558
       190.062061       95.454187       51.541867     1     0     0     0     6   1.560
       131.084547      190.590947      351.720193     1     0     0     0     4   1.560
       151.718135       58.571878      172.720847     1     0     0     0     4   1.560
       190.649565      132.909592      585.354340     1     4     0     0     1   1.558
        92.110906      103.412168      444.847695     1     1     0     0     7   1.558
       126.217473       71.120461       58.172700     3     1     0     0     3   2.248
        91.867008      162.776303      163.000207     1     1     0     0     6   1.558
       135.321838      174.698746      476.515400     1     6     0     0     8   1.558
        72.516283      156.824687      177.442701     1     2     0     0     8   1.558
        47.915988      186.499435      627.302712     1     1     0     0     5   1.558
       160.369474      185.030616       49.610200     1     0     0     0     8   1.560
       186.918579       93.177231      458.712518     1     4     0     0     1   1.558
       179.239264       69.783329      376.640206     1     0     0     0     3   1.560
        55.574422       27.421209      780.725198     1     5     0     0     1   1.558
        46.215043      104.774286       83.727708     1     0     0     0     4   1.560
       188.533400      176.483794      244.233534     1     1     0     0     1   1.558
        33.825084       14.310683      189.328559     1     0     0     0     8   1.560
        94.634072      129.985185      148.083431     1     1     0     0     1   1.558
         9.149772       58.547964      260.108539     1     0     0     0     3   1.560
        43.077400      120.266563       11.110250     1     0     0     0     5   1.560
        13.102303        3.518991      511.212685     1     2     0     0     3   1.558
       109.561291      149.587844       87.352700     1     0     0     0     6   1.560
       119.808879       26.915841      393.362710     1     1     0     0     6   1.558
       145.660628      164.804216      387.932697     1     1     0     0     1   1.558
        98.414934      121.253597      159.793401     1     5     0     0     3   1.558
       149.966828      168.456473      118.750617     2     1     0     0     4   1.963
        45.423187       14.604250      789.980202     1     2     0     0     3   1.558
       162.969887       23.879190      357.038265     1     0     0     0     8   1.560
       154.841412      192.610389      583.401989     1     6     0     0     8   1.558
        76.086400       69.491681      373.657693     1     0     0     0     6   1.560
        73.469877      148.449977      685.427712     1     2     0     0     6   1.558
        43.343210      171.665830      150.362695     1     0     0     0     6   1.560
       188.446289      136.484573      548.136452     2     1     0     0     1   1.963
        37.291365      143.007853      190.367699     1     0     0     0     1   1.560
       151.820360      182.549457      254.735207     1     1     0     0     5   1.558
       188.532597       34.521342      581.485207     1     0     0     0     6   1.560
       121.875404      181.523385      302.532693     1     0     0     0     6   1.560
       156.027105      199.763238      853.295205     1     1     0     0     1   1.558
        86.528963       55.465686      443.630218     1     0     0     0     8   1.560
        91.654442      156.228338       42.337701     1     0     0     0     6   1.560
       111.654764       77.057931      520.617715     1     3     0     0     5   1.558
       136.518259      175.081189       49.090199     1     0     0     0     5   1.560
        27.198231       81.271520      311.542692     1     6     0     0     8   1.558
       173.359870      177.913442       24.224367     1     0     0     0     5   1.560
        82.725300      116.463294      407.092690     1     0     0     0     8   1.560
        59.702055      196.657423      406.576038     3     0     0     0     2   2.250
       162.430554      127.504191      330.160195     1     1     0     0     7   1.558
       128.363790        5.508498      255.432702     1     2     0     0     2   1.558
        12.806775       66.860095      247.908842     2     1     0     0     4   1.963
       155.376876       19.673148      366.837685     1     0     0     0     4   1.560
        51.337024       12.558022      346.852700     1     1     0     0     8   1.558
       160.410379      101.037614      661.660195     1     2     0     0     1   1.558
       158.663056      129.440135       87.995202     1     0     0     0     8   1.560
       177.544092      166.237701      473.917702     1     0     0     0     2   1.560
       195.682226        9.439493      739.453927     2     9     0     0     1   1.963
        67.384753      156.154554      228.507704     1     0     0     0     4   1.560
       174.711256      124.032127       33.175200     1     0     0     0     1   1.560
       129.868494       14.658544      397.401923     1     0     0     0     6   1.560
        42.393973       83.469944      762.746865     1     1     0     0     6   1.558
       137.425847      110.121425      331.122689     1     1     0     0     1   1.558
        18.512088        9.478844      852.272683     1     0     0     0     4   1.560
       179.274025       71.132799      285.632699     1     5     0     0     3   1.558
        62.585994        2.055592      772.607583     1     7     0     0     1   1.558
         7.741006       47.380152       49.667908     2     0     0     0     8   1.960
       111.722404       16.820002      138.475198     1     1     0     0     7   1.558
       146.355586      111.866449      166.114696     1     1     0     0     8   1.558
       152.063192      192.167643       25.585200     1     0     0     0     1   1.560
        60.843517       24.023603      253.332696     1     0     0     0     8   1.560
       139.322498      104.319648      692.175210     1     0     0     0     2   1.560
         7.057360       49.507460      105.300202     1     0     0     0     2   1.560
       183.847647       33.784082      504.902688     1     5     0     0     2   1.558
        98.057602      196.720450      714.405312     1     6     0     0     1   1.558
       178.441679       58.515621      455.474580     2     0     0     0     3   1.960
       112.345875      146.371862       38.658852     2     1     0     0     7   1.963
       133.352038      113.419880      166.808919     1     1     0     0     2   1.558
        35.195698      150.799254      561.657693     1     0     0     0     6   1.560
        98.640897       97.981340      554.227700     1     2     0     0     1   1.558
       163.224227       17.264246       91.215198     1     1     0     0     6   1.558
        33.347330      185.096980      624.844748     2     2     0     0     8   1.963
       181.030396       59.069697       83.150201     2     0     0     0     8   1.960
       165.572485      119.655259      636.725198     1     3     0     0     3   1.558
        74.752521       22.797979     1108.225259     1     6     0     0     8   1.558
        27.295760      110.244961      609.457680     1     1     0     0     5   1.558
       190.891369      198.643101      104.000199     1     0     0     0     8   1.560
        10.772189      117.475787      281.477700     1     1     0     0     4   1.558
        78.997317      182.661735      768.085183     1     6     0     0     1   1.558
        61.653960      166.876038      594.611236     1     0     0     0     3   1.560
       185.445383       84.356454       95.347703     1     0     0     0     3   1.560
       105.970239      136.249488      437.136246     1     3     0     0     5   1.558
       101.716725      157.006740        7.257700     1     0     0     0     2   1.560
        76.228532      190.545667      613.280190     1     1     0     0     5   1.558
       131.192552       50.386665      817.892678     1     0     0     0     3   1.560
        52.965157      174.711277       47.700200     1     1     0     0     4   1.558
       127.957109       36.487627      411.925210     1     2     0     0     2   1.558
        58.006886       27.582651      319.865212     1     1     0     0     1   1.558
        99.719486      132.408047       49.195199     1     0     0     0     6   1.560
       161.356894      104.856394      395.500191     1     0     0     0     6   1.560
       175.553384        8.346314      324.422707     1     0     0     0     1   1.560
       184.348738      193.036664       24.857701     1     0     0     0     3   1.560
       125.914975       16.002665      776.806102     1     3     0     0     3   1.558
        47.473087      120.106428      252.826322     1     0     0     0     7   1.560
       110.328609       16.925152      401.757104     1     2     0     0     3   1.558
         8.664823       69.970454      343.825204     1     0     0     0     8   1.560
        67.385335      186.027716      297.238936     1     1     0     0     1   1.558
        60.489252       62.753065      612.225198     1     1     0     0     7   1.558
       118.505441       90.261120      313.443948     2     0     0     0     6   1.960
        39.835744      130.815788       70.160937     3     2     0     0     6   2.248
        63.987901       49.640074      471.557687     1     6     0     0     3   1.558
        19.549236       13.685112     1109.363239     1     0     0     0     4   1.560
        65.859448      103.763525      131.390206     1     0     0     0     6   1.560
       153.502619       69.181366      618.018729     2     3     0     0     8   1.963
       111.752040      184.274082      847.316162     2     5     0     0     5   1.963
        20.455772      180.834233      317.517161     1     3     0     0     1   1.558
       154.518171      151.827373     1149.500161     1     7     0     0     7   1.558
       187.572173       43.181272     1036.380166     1     2     0     0     1   1.558
        64.543677      110.497976      268.917702     1     0     0     0     4   1.560
        98.313165        0.524033       24.775201     1     0     0     0     3   1.560
       144.582854       73.884804      316.110207     1     2     0     0     2   1.558