ITEM: TIMESTEP
0
ITEM: NUMBER OF ATOMS
          63
ITEM: BOX BOUNDS pp pp pp
  0.0000000E+00   200.000000000000     
  0.0000000E+00   200.000000000000     
  0.0000000E+00   5000.00000000000     
ITEM: ATOMS x y z f1 f2 f3 f4 orient radius
       113.047142       55.032526      175.782693     1     0     0     0     3   1.560
       198.615135      139.248590      344.455209     1     0     0     0     3   1.560
        31.603748      152.012359      554.347714     1     0     0     0     4   1.560
       159.996186      130.773283      982.735207     1     0     0     0     3   1.560
         7.152192       83.333219     1293.782143     1     1     0     0     4   1.558
        72.275704      163.270861      239.999367     1     0     0     0     5   1.560
       116.058602      104.097346     1072.205239     1     0     0     0     8   1.560
         9.754464      168.238838      118.867699     1     0     0     0     6   1.560
        87.714933      126.356346      478.747681     1     0     0     0     6   1.560
       179.199371       49.261190      101.460198     1     0     0     0     4   1.560
       192.524448      193.156939      226.448952     2     0     0     0     7   1.960
        84.174533      181.992999      695.827676     1     0     0     0     7   1.560
        38.598606       35.076983     1034.850259     1     0     0     0     6   1.560
       111.391510      146.977132      519.042702     1     1     0     0     4   1.558
        91.987555       24.278417      222.245202     1     0     0     0     8   1.560
        20.383551      103.054418      165.677697     1     0     0     0     1   1.560
       174.590102       94.344275      141.037698     1     0     0     0     5   1.560
        67.076407      100.521361      962.402688     1     0     0     0     6   1.560
        61.990272      149.307383      130.911032     1     0     0     0     6   1.560
       169.130095       89.736783      182.495202     1     0     0     0     4   1.560
        22.966079      133.688269      245.867699     1     0     0     0     1   1.560
       132.718154      189.936316      386.040200     1     0     0     0     1   1.560
        68.495940       25.725410      556.782693     1     0     0     0     1   1.560
       112.094515      186.929450      289.232695     2     0     0     0     5   1.960
       119.388186      185.670762      269.082711     1     0     0     0     1   1.560
        33.052127       75.386583      110.365197     1     0     0     0     1   1.560
        27.268191       73.534776      110.115197     1     0     0     0     6   1.560
        39.645848      119.650101      920.875222     1     0     0     0     3   1.560
       106.850821      112.365853      160.517486     1     1     0     0     3   1.558
       103.629532      134.597348      132.626031     1     0     0     0     5   1.560
       116.799446      122.573345      304.347695     1     0     0     0     8   1.560
        97.510229      131.895342      134.668954     2     0     0     0     5   1.960
       199.780248       16.061419       61.182702     1     0     0     0     7   1.560
        11.032073       23.237495      561.655190     1     0     0     0     5   1.560
        76.129580      186.914442      813.925210     1     0     0     0     3   1.560
        51.891936      163.045479      585.412698     1     0     0     0     3   1.560
        85.608000       48.933418      536.402688     1     0     0     0     6   1.560
       101.819914      132.641426      504.395211     1     0     0     0     6   1.560
       194.507575      133.054418      269.135201     1     2     0     0     6   1.558
        45.657811       42.694169      671.967690     1     1     0     0     5   1.558
       116.343391       20.621318      111.150201     1     0     0     0     4   1.560
       104.897082      166.818757      482.710211     2     0     0     0     1   1.960
        55.564306      170.985369       82.620202     1     1     0     0     4   1.558
        46.802150      194.703940      246.545205     1     0     0     0     7   1.560
        16.961489      196.394545     1050.652261     1     0     0     0     6   1.560
       188.053530       41.474501      721.530190     1     0     0     0     8   1.560
       132.994637      168.285335      863.247720     1     0     0     0     8   1.560
       141.985649       83.814393      300.175210     1     0     0     0     2   1.560
        90.309624       55.210389      234.332696     1     0     0     0     4   1.560
       112.821587       35.072450      228.537698     2     0     0     0     8   1.960
       147.473997      145.583291       88.842713     1     0     0     0     3   1.560
       147.878050      141.719277       83.767701     1     0     0     0     1   1.560
        80.618040      141.983315       83.847703     1     0     0     0     2   1.560
       161.682005      117.619302       91.822701     1     0     0     0     5   1.560
       138.938606      119.945369      736.757729     1     0     0     0     8   1.560
       178.637048       56.168490      172.980202     1     0     0     0     2   1.560
       122.965051      118.772494      423.100198     1     0     0     0     4   1.560
        29.196984      103.804476      512.362710     1     0     0     0     1   1.560
        56.508996        5.016512      321.922707     1     0     0     0     7   1.560
        50.576989      171.668368      389.377694     1     0     0     0     5   1.560
        21.497033       21.448397      336.875191     1     0     0     0     1   1.560
       126.918250       85.552470     3120.726387     0     1     0     0     5   1.119
         1.160002      138.625435      612.012673     1     2     0     0     6   1.558
