ITEM: TIMESTEP
0
ITEM: NUMBER OF ATOMS
        3819
ITEM: BOX BOUNDS pp pp pp
  0.0000000E+00   200.000000000000     
  0.0000000E+00   200.000000000000     
  0.0000000E+00   5000.00000000000     
ITEM: ATOMS x y z f1 f2 f3 f4 orient radius
        52.266402       58.373947      224.441453     2     0     0     0     5   1.960
       184.815677      116.590759       44.485200     1     0     0     0     5   1.560
       123.318254      184.952766     1088.763222     1     1     0     0     8   1.558
        96.733731      190.877871      283.675210     1     3     0     0     7   1.558
       137.902028      109.041633       95.060197     1     2     0     0     2   1.558
        73.822298       75.065331      379.967690     1     0     0     0     3   1.560
        21.452816      193.336262     1006.608193     1     2     0     0     3   1.558
        52.049712      126.998517      400.730202     1     0     0     0     3   1.560
       149.020705       50.169431      908.242715     1     4     0     0     7   1.558
         9.247720      107.607327      619.830178     1     1     0     0     5   1.558
       149.821307      136.871742      180.605202     1     0     0     0     7   1.560
        72.303438       43.083971      155.735526     2     0     0     0     4   1.960
       158.177156       85.425451       97.872697     1     0     0     0     2   1.560
        11.772054      130.432127      733.812722     1     5     0     0     6   1.558
       165.091718       36.341087      148.714233     1     0     0     0     4   1.560
        86.687234      106.003150       82.060197     1     0     0     0     1   1.560
        29.503905      179.387474      682.612689     1     0     0     0     2   1.560
        59.173236       53.326402       84.775201     2     0     0     0     7   1.960
        14.148284       63.284828      304.465198     1     0     0     0     6   1.560
       141.708576      167.219787       88.852468     1     0     0     0     2   1.560
        43.506694      125.980857      304.255196     1     2     0     0     2   1.558
        78.256878      177.240509      228.894322     1     2     0     0     5   1.558
       106.166537      111.165511      608.315224     1     1     0     0     2   1.558
        10.413598      135.894356      339.586808     1     1     0     0     5   1.558
       162.277417       28.457247      667.545083     1     1     0     0     7   1.558
       148.606687       96.285913      533.682717     1     6     0     0     5   1.558
        95.004732      153.925932      431.592690     1     7     0     0     5   1.558
        73.878312      131.135799      293.632699     1     0     0     0     5   1.560
       165.461469       26.696425      991.196838     1     6     0     0     2   1.558
       132.862283       65.776879      145.245063     1     2     0     0     2   1.558
       191.907852       44.823255      361.895211     1     0     0     0     8   1.560
       153.107012       21.335087      565.426024     1     0     0     0     4   1.560
       147.875556      150.695322      267.185189     1     0     0     0     1   1.560
       186.087447       98.852181      503.138955     2     0     0     0     2   1.960
       169.552111       97.328928      357.902688     1     0     0     0     3   1.560
         1.599076       92.427368       26.583946     1     0     0     0     4   1.560
       126.818325       15.964873      291.266732     1     1     0     0     4   1.558
        27.658709       93.640532       44.876486     2     0     0     0     8   1.960
       185.582523      117.638750      998.057717     1     4     0     0     5   1.558
       161.872791       41.915828      109.735200     1     0     0     0     5   1.560
        27.015769        9.435777      895.702676     1     6     0     0     7   1.558
       162.267308      153.732709      413.935199     1     2     0     0     7   1.558
        59.639731       97.810272       41.604950     1     0     0     0     2   1.560
       120.563000      149.379026      362.715188     1     1     0     0     6   1.558
        24.287919       27.957893      951.740212     1     7     0     0     5   1.558
       153.010812      117.195525      494.445199     1     0     0     0     4   1.560
        62.565849       37.432635      594.445229     1     0     0     0     7   1.560
        69.473219       94.586052      620.641979     1     0     0     0     8   1.560
       177.165996       64.492125      214.055199     1     0     0     0     6   1.560
        78.779466      122.592957      228.343535     1     0     0     0     7   1.560
       179.391292      121.938455      404.295205     1     0     0     0     1   1.560
       155.962427        9.906448      759.880227     1     1     0     0     3   1.558
        41.448965      163.996458       44.377702     1     0     0     0     5   1.560
        85.001413      112.707488       49.793002     1     0     0     0     5   1.560
         9.729106      121.546629      897.485207     1     6     0     0     5   1.558
         4.946743      190.331186      314.585213     1     0     0     0     3   1.560
       147.893788      183.692467      548.137673     1     0     0     0     8   1.560
        40.183205      155.313017       27.873978     1     0     0     0     2   1.560
       157.046037       71.161327      401.804370     1     1     0     0     7   1.558
        84.677815      172.968433      953.377724     1     3     0     0     2   1.558
        21.491299       29.256090      626.610207     1     0     0     0     6   1.560
       114.094496       70.747563     1312.898232     1     6     0     0     4   1.558
       115.712388       95.601867      664.760171     1     0     0     0     7   1.560
        72.413780       23.100902      905.951455     2     0     0     0     3   1.960
        26.664131       71.652809     1041.628443     1     5     0     0     1   1.558
       172.265572      180.648161      410.357705     1     1     0     0     3   1.558
       157.453828       59.773613      705.942727     1     0     0     0     7   1.560
       129.748251      163.176942      454.917702     1     2     0     0     6   1.558
       178.791992      138.450089      173.345193     1     3     0     0     8   1.558
        98.198287      193.437973      761.027688     1     1     0     0     4   1.558
       197.835727       67.602445       26.262700     1     0     0     0     1   1.560
       172.193136      190.877278       41.580201     1     0     0     0     4   1.560
        23.510676       99.241473      230.841856     1     0     0     0     2   1.560
       179.336926       11.156355      534.072168     1     4     0     0     7   1.558
       161.147622       44.344955      889.765176     1     2     0     0     8   1.558
        35.869372      118.247970      113.948538     1     0     0     0     5   1.560
       169.786733       33.878457      154.172707     1     1     0     0     5   1.558
       126.133183       92.491108      520.988295     1     1     0     0     5   1.558
        60.790429      131.870133       28.006917     1     0     0     0     4   1.560
        96.315531      119.162984      304.264779     3     0     0     0     2   2.250
       177.849428      159.289862      160.636452     2     0     0     0     1   1.960
       157.362286      184.760063      722.086017     1     3     0     0     4   1.558
       143.947435       28.750614       11.850199     1     0     0     0     2   1.560
       101.580821      123.590979      605.290200     1     0     0     0     2   1.560
        21.571600      156.635385      195.722695     1     0     0     0     2   1.560
        91.440757       62.602864      367.570199     1     1     0     0     4   1.558
        65.783711      145.448871       67.367699     1     0     0     0     4   1.560
        71.663261       49.167019      563.810220     2     0     0     0     2   1.960
        72.547283       46.753756      411.967690     1     0     0     0     7   1.560
        41.051281       95.389384      226.667702     1     0     0     0     6   1.560
       101.341784       50.310512      723.985207     1     1     0     0     4   1.558
       102.037189       93.909311      118.287698     1     2     0     0     2   1.558
        54.268178      199.621070      273.697701     1     2     0     0     2   1.558
       177.973859       97.504667      366.075204     2     2     0     0     8   1.963
       191.137669      190.808773      492.865212     1     1     0     0     4   1.558
       159.720167      174.018774      265.163104     1     0     0     0     8   1.560
       117.190676       49.326379      782.178724     2     1     0     0     4   1.963
       169.101566       72.203401      157.642693     1     0     0     0     2   1.560
       125.154550      181.638687      242.852700     2     0     0     0     5   1.960
       171.238716      109.458553      156.391608     2     2     0     0     8   1.963
        59.222428       65.061675      774.761100     2     1     0     0     5   1.963
       133.064133      158.426484       21.880200     1     0     0     0     2   1.560
       113.415075       87.799689       11.910200     1     0     0     0     4   1.560
       192.380670       61.321105      622.307717     1     0     0     0     7   1.560
        20.604956       42.651553       84.706207     2     0     0     0     5   1.960
       184.388805      184.834997      636.635171     1     0     0     0     6   1.560
       196.823546      121.469421      483.080209     1     0     0     0     8   1.560
       129.458581       96.234161      739.571647     1     1     0     0     4   1.558
        72.470155      126.723721     1115.773232     1     2     0     0     8   1.558
         2.741483       33.762141      827.385171     1     4     0     0     2   1.558
        21.288268       42.826349      479.250191     1     2     0     0     2   1.558
        98.568110      198.023718      218.800195     1     0     0     0     1   1.560
       156.399749      106.536752      240.915751     1     1     0     0     7   1.558
        36.075349      166.589976      261.322831     1     2     0     0     5   1.558
       191.203786       55.768843      279.819420     1     1     0     0     5   1.558
       144.509278       72.884527      689.070189     1     0     0     0     1   1.560
        63.777429       90.535226      627.515176     1     0     0     0     6   1.560
        43.468378       98.921374      618.310220     1     4     0     0     6   1.558
       169.975124       48.001079      104.291812     1     1     0     0     5   1.558
       179.904506       83.713426      108.826867     1     3     0     0     1   1.558
        16.309290      165.603166      462.012274     2     0     0     0     3   1.960
        16.751173       10.951825      137.340203     1     0     0     0     7   1.560
        89.548490       85.514677      852.612630     1     2     0     0     8   1.558
        34.044555      120.591954      515.550210     1     0     0     0     8   1.560
        49.669715       44.554469      446.715188     1     1     0     0     6   1.558
        94.665599       89.414594      320.857705     1     1     0     0     1   1.558
        29.220570      180.732109      308.975198     1     1     0     0     4   1.558
       150.886862      158.534213      658.585183     1     0     0     0     2   1.560
        93.846602       55.311789      783.820229     1     0     0     0     7   1.560
       101.595415      119.410665       36.362698     1     0     0     0     2   1.560
       100.186744      165.924858      229.202706     1     3     0     0     8   1.558
       150.959141      134.288655      940.497720     1     4     0     0     6   1.558
       186.164353      109.592917      589.017981     1     7     0     0     3   1.558
       197.420786       82.555752      536.897724     1     0     0     0     2   1.560
       145.912973       34.702055      506.430215     1     1     0     0     5   1.558
        55.960293       80.385497      769.887673     1     3     0     0     2   1.558
       133.502426      162.788109      404.870187     1     0     0     0     4   1.560
        74.344810      151.851721     1227.064236     1     3     0     0     5   1.558
        40.450223      193.346000     1106.798922     1     6     0     0     5   1.558
       138.025654      132.351222      164.262704     1     0     0     0     2   1.560
        86.228935      174.292264      568.531860     1     0     0     0     1   1.560
       105.163068       86.332062       56.273868     3     0     0     0     8   2.250
       174.149149       38.498124      552.612689     1     1     0     0     2   1.558
         2.670320      106.972129       19.115200     1     0     0     0     3   1.560
        22.395676      145.273998      258.542702     1     0     0     0     6   1.560
         6.691399      123.741950      843.207680     1     1     0     0     2   1.558
        91.954102      150.792586      226.106102     1     0     0     0     2   1.560
        95.496150       18.274736      893.950173     1     4     0     0     2   1.558
       181.717587       41.967450       88.135201     1     0     0     0     4   1.560
        77.961360       66.093788      923.587685     1     3     0     0     2   1.558
       194.610975       48.024451      489.707711     1     0     0     0     4   1.560
       179.751857       43.897067      426.189841     2     0     0     0     5   1.960
        31.935791      118.791799       33.589872     1     0     0     0     4   1.560
        17.636744        3.714271      401.485207     1     2     0     0     5   1.558
       122.020325      178.290504      321.267709     1     1     0     0     2   1.558
        97.182579       56.831076      398.730202     1     1     0     0     3   1.558
         5.130263      115.977484       19.507701     1     0     0     0     1   1.560
        43.298544       56.758204      110.693913     1     1     0     0     2   1.558
       183.403423      110.824845      300.700525     1     1     0     0     5   1.558
        11.485486      168.813246       58.307702     1     0     0     0     6   1.560
       192.386999      141.478284      149.186033     1     0     0     0     4   1.560
       102.157880       95.079246      774.508486     1     0     0     0     1   1.560
       117.279331       68.886449      569.533746     2     1     0     0     4   1.963
        62.114200       32.268085      451.624310     1     2     0     0     6   1.558
        47.747249       54.083539      113.749084     1     0     0     0     2   1.560
        68.738165       43.692152      575.345193     1     0     0     0     7   1.560
        17.677869      152.565222      800.822671     1     1     0     0     2   1.558
        43.481965       21.877325      946.217690     1     2     0     0     2   1.558
         1.911617      139.090860      292.158965     2     2     0     0     4   1.963
         0.719032       94.377093      255.767693     1     0     0     0     8   1.560
       118.036566       90.320297      922.127724     1     3     0     0     7   1.558
        78.168116      124.086707       50.892699     2     0     0     0     6   1.960
        91.149235       50.429459      541.237710     1     0     0     0     2   1.560
       140.432496      161.841844      981.485207     1     6     0     0     3   1.558
        80.471868       10.671651      477.842690     1     0     0     0     5   1.560
       170.549740        8.499524      723.415200     1     1     0     0     5   1.558
       107.795863      124.456068      104.912700     1     0     0     0     7   1.560
        57.326835       77.773685      261.662698     1     2     0     0     5   1.558
       192.056472      111.271304     1002.282693     1     1     0     0     7   1.558
        24.858476      181.360809      700.270180     1     5     0     0     3   1.558
        59.468864      102.785048      328.044371     3     0     0     0     8   2.250
        57.156168      179.633930      909.625222     1     0     0     0     4   1.560
        50.190959      192.095451      219.980202     1     0     0     0     4   1.560
        85.256071      186.751112      259.335213     1     0     0     0     3   1.560
        88.393535      151.220057       44.036893     1     0     0     0     8   1.560
        50.251182       63.282610       51.391450     2     0     0     0     2   1.960
       147.494392      100.134865      801.517678     1     2     0     0     8   1.558
        55.410229      100.774306      323.787698     1     0     0     0     4   1.560
       157.360073      153.979453      647.535195     1     0     0     0     2   1.560
       191.548034      144.791207      372.466454     2     2     0     0     4   1.963
       181.319648       91.572213      522.670205     1     1     0     0     7   1.558
         4.212572      176.726024      177.366676     1     1     0     0     5   1.558
        90.394682      159.240922       48.112698     1     0     0     0     5   1.560
        93.250994       98.315228      306.240212     1     0     0     0     4   1.560
       167.988512      199.920008      365.317169     1     0     0     0     2   1.560
        38.862637       46.555545      175.422707     1     0     0     0     7   1.560
        46.004785      109.148120       99.985200     1     0     0     0     8   1.560
       121.608196      119.554171      289.091040     2     0     0     0     2   1.960
       172.867205      158.157624       79.790847     2     0     0     0     8   1.960
        71.791022       87.304145      217.503503     1     1     0     0     7   1.558
       187.706283       38.448725      184.060204     1     0     0     0     1   1.560
        57.488148      199.687201       58.871033     1     1     0     0     8   1.558
         5.551430      151.069177     1165.200234     1     3     0     0     4   1.558
        18.027820       65.596824       72.085198     1     0     0     0     2   1.560
        35.857620      193.739648      772.495217     1     0     0     0     3   1.560
        29.549977       27.563765       98.517701     1     2     0     0     7   1.558
        30.988966       71.391871      412.087701     2     1     0     0     3   1.963
       113.669051       44.553512      303.237710     1     0     0     0     2   1.560
        62.466902      171.342481      631.305840     1     1     0     0     2   1.558
       175.735058      191.224570      226.002485     1     1     0     0     6   1.558
        58.709335       91.160669      958.835183     1     0     0     0     6   1.560
       156.604852      132.979872      870.107705     1     6     0     0     5   1.558
       188.149829       11.714227      602.170205     1     0     0     0     4   1.560
       111.166481       99.482491      816.070138     2     0     0     0     5   1.960
        20.804291      131.367017      185.832696     1     0     0     0     5   1.560
        86.429248       24.878593      134.229940     3     2     0     0     6   2.248
       105.018442      105.581108      830.652708     1     2     0     0     6   1.558
       168.369138       43.707909      793.027688     1     1     0     0     7   1.558
       195.043712       17.021915      421.799828     1     6     0     0     6   1.558
        36.122604       61.347523      257.202706     1     0     0     0     4   1.560
        74.846606      103.926219       12.830947     2     0     0     0     5   1.960
        62.429505      189.573800      275.142698     1     1     0     0     2   1.558
       178.726055      171.121024      981.837685     1     3     0     0     8   1.558
       190.389092       31.355552      596.675884     2     5     0     0     7   1.963
       135.633672      125.855769      554.127724     1     0     0     0     3   1.560
       136.497195       90.633242      159.385977     1     1     0     0     7   1.558
       158.632079       71.569408      267.586933     1     1     0     0     4   1.558
       102.977729       69.693593      564.905190     1     2     0     0     1   1.558
       129.075352       69.355022       61.102143     1     0     0     0     6   1.560
        33.658624      102.066581      741.232705     1     0     0     0     5   1.560
        29.891263       56.389169      547.826880     1     1     0     0     5   1.558
        64.590833       63.957128      335.382899     1     2     0     0     7   1.558
        70.936910       65.087960      676.073999     1     2     0     0     2   1.558
       123.713067      100.126462      626.511452     2     0     0     0     8   1.960
       199.964973       11.114426      348.075991     1     3     0     0     4   1.558
       196.349226       66.140577      252.287698     1     3     0     0     7   1.558
         4.578324       72.005861      273.025216     1     1     0     0     8   1.558
         6.859392      173.482626       28.336449     2     0     0     0     4   1.960
       126.962413      129.195239      233.792702     1     1     0     0     6   1.558
       115.187727       98.008831      784.987710     1     0     0     0     5   1.560
        59.092117      152.601852      457.025024     1     1     0     0     2   1.558
        65.505803       64.016599      669.110085     1     1     0     0     8   1.558
        99.674650        4.995361      242.450204     1     0     0     0     5   1.560
       197.145467      172.109621      342.642709     1     0     0     0     2   1.560
       178.463220      171.613145      303.965188     1     0     0     0     1   1.560
        95.836175       50.927425      404.922707     1     1     0     0     2   1.558
       140.153201      191.856034      486.147713     1     0     0     0     1   1.560
       132.858977       92.314875      486.784371     1     0     0     0     7   1.560
        68.613034       79.747948      864.372720     1     0     0     0     4   1.560
       147.631664      165.416677      739.755227     1     2     0     0     2   1.558
         5.283768       52.284615      247.807702     1     0     0     0     3   1.560
        57.183057       61.807321      688.915200     1     4     0     0     3   1.558
        28.878125       33.642967      461.645211     1     0     0     0     7   1.560
       179.162661      169.180676      489.470193     1     0     0     0     5   1.560
        79.726119      185.667141     1093.172158     1     2     0     0     5   1.558
       119.084771       28.224426     1002.727700     1     1     0     0     1   1.558
        20.999644      135.452641      832.605202     1     2     0     0     7   1.558
       163.081498        7.969308      664.677712     1     0     0     0     3   1.560
       195.656909      141.467836      674.293893     2     1     0     0     1   1.963
       157.161822       95.407012       87.650201     1     0     0     0     3   1.560
       172.807128       51.067798      701.023216     1     3     0     0     7   1.558
        94.418930      188.936173     1386.480141     1     3     0     0     5   1.558
       189.410658      187.912898      534.137675     1     4     0     0     7   1.558
        97.742388      116.053644      121.892701     1     0     0     0     1   1.560
       113.542233      129.521764      152.742699     1     0     0     0     8   1.560
        89.870352       68.649266       97.970200     1     0     0     0     2   1.560
        83.727411      150.744797      376.667739     1     0     0     0     5   1.560
        73.782829       49.835021      605.039366     1     3     0     0     3   1.558
        76.997764      165.922801      194.917702     1     0     0     0     3   1.560
        74.033021       21.047320      514.082711     1     2     0     0     8   1.558
        94.897556       18.422436      127.230202     1     0     0     0     1   1.560
       168.302740      163.954632      509.120187     1     2     0     0     4   1.558
        97.109742       45.703668      140.655205     1     1     0     0     4   1.558
        56.325684      146.569405       81.150827     2     0     0     0     4   1.960
       106.172221      168.588107      245.077706     1     0     0     0     6   1.560
       199.316043      190.212251      608.892678     1     2     0     0     8   1.558
       174.711256      124.032127       33.175200     1     0     0     0     1   1.560
        65.760878      187.529455      440.977014     1     5     0     0     4   1.558
        90.951781       92.983085      199.062707     1     0     0     0     8   1.560
         2.776251      178.147639      306.695199     1     0     0     0     3   1.560
        30.349488      187.173125      522.540200     1     2     0     0     8   1.558
       156.345125       86.647277       12.912057     2     0     0     0     1   1.960
       192.358209      177.337633      365.709369     1     0     0     0     3   1.560
       162.390714      113.578297      433.042702     1     1     0     0     7   1.558
       133.652503      114.013622      688.457680     1     1     0     0     5   1.558
        93.427731       81.612080      236.509367     1     2     0     0     3   1.558
       160.332271      169.333706      516.277688     1     1     0     0     6   1.558
       144.990076      178.453427      662.445229     1     3     0     0     2   1.558
        28.357318        8.295692      471.890206     1     0     0     0     5   1.560
        36.653984       97.344332      542.655172     1     2     0     0     2   1.558
       100.221799       58.301503      488.082711     1     0     0     0     3   1.560
        49.297236       53.577986      514.255196     1     0     0     0     1   1.560
        57.744373      132.111199      752.740212     1     2     0     0     8   1.558
       113.934244      135.948566      394.562691     1     2     0     0     5   1.558
        13.890390       57.985024      436.147713     1     0     0     0     5   1.560
       109.111771       80.528511      304.342690     1     0     0     0     6   1.560
        57.993678      131.462045      452.652688     1     0     0     0     8   1.560
        78.149630       36.781426      507.511888     1     2     0     0     6   1.558
        45.977442      193.986415      806.485207     1     6     0     0     3   1.558
        12.022799       90.858853      109.362702     1     0     0     0     4   1.560
       109.884843      136.853978      143.522020     1     0     0     0     1   1.560
       116.688211       12.877299      373.082711     1     0     0     0     6   1.560
       129.407966       56.777128      346.127694     1     1     0     0     2   1.558
         5.757651       50.770564      214.732705     1     2     0     0     6   1.558
        22.364823      123.122674     1079.727212     1     2     0     0     1   1.558
       137.063516       34.963776      590.423251     1     3     0     0     1   1.558
       147.207356       27.513516      230.426453     2     0     0     0     4   1.960
        53.370757      155.074964      454.032693     1     3     0     0     6   1.558
        90.812905      133.335019      404.392709     1     0     0     0     1   1.560
       123.034606      169.094377      562.667702     1     0     0     0     2   1.560
        17.042459      136.225283      807.722695     1     0     0     0     2   1.560
        94.008916      194.112840        6.477700     1     0     0     0     2   1.560
       102.488669       53.151784      451.385201     1     0     0     0     8   1.560
        51.932377       38.525073      843.062953     1     7     0     0     6   1.558
       148.683757       50.790865      793.306028     1     4     0     0     4   1.558
       102.878589       99.396487      446.877827     1     6     0     0     4   1.558
        36.768474       27.645577      374.597595     1     6     0     0     4   1.558
       117.206871      118.392319      232.177697     1     0     0     0     5   1.560
        77.075487       95.074605      956.050210     1     0     0     0     3   1.560
        57.306595      189.842593      181.753147     1     1     0     0     8   1.558
        94.150572      160.606883      544.885171     1     1     0     0     2   1.558
       179.750017        4.130075      350.387704     1     1     0     0     6   1.558
        20.197577        6.918721      356.182687     1     0     0     0     5   1.560
       116.499215        5.530612      736.232583     1     4     0     0     2   1.558
       165.082538       39.876834      226.515206     1     0     0     0     5   1.560
       120.146356      177.995929      496.874371     1     1     0     0     3   1.558
       103.761784        4.826500      112.442696     1     0     0     0     1   1.560
       191.190736      103.853180       12.030200     1     0     0     0     1   1.560
        68.512245       53.313737      134.407693     1     1     0     0     6   1.558
       188.726480      165.335554       48.890198     1     0     0     0     2   1.560
       100.828696       99.073775      698.867715     1     1     0     0     1   1.558
       103.161286      184.527722      222.225198     1     0     0     0     2   1.560
        14.876912       80.487947      935.470193     1     0     0     0     4   1.560
       114.361583       40.464348      291.424365     1     0     0     0     3   1.560
       154.608012      109.487154      455.100198     1     2     0     0     7   1.558
       105.744845        0.168049       37.240469     1     1     0     0     8   1.558
         3.561023      169.205093      258.645196     1     1     0     0     1   1.558
        41.378883      162.232611      129.542702     1     1     0     0     8   1.558