ITEM: TIMESTEP
0
ITEM: NUMBER OF ATOMS
         750
ITEM: BOX BOUNDS pp pp pp
  0.0000000E+00   200.000000000000     
  0.0000000E+00   200.000000000000     
  0.0000000E+00   5000.00000000000     
ITEM: ATOMS x y z f1 f2 f3 f4 orient radius
        36.749852       62.591642      699.187722     1     0     0     0     6   1.560
       117.775451      132.300722      364.205209     1     0     0     0     5   1.560
       116.058602      104.097346     1072.205239     1     3     0     0     4   1.558
        94.953230       24.730104      132.350198     1     0     0     0     6   1.560
        63.529224       20.846921      598.410195     1     0     0     0     4   1.560
       178.483693       34.800768      696.457680     1     0     0     0     1   1.560
        65.345834        3.827335      311.886870     1     0     0     0     3   1.560
       179.375761      101.820035      369.606240     2     0     0     0     4   1.960
        62.267246       31.175367      578.032693     1     0     0     0     4   1.560
       161.325311       44.014642      106.670201     2     1     0     0     2   1.963
       131.430899        0.575212      551.697671     1     0     0     0     6   1.560
        90.550494      129.656002      289.992905     2     0     0     0     2   1.960
        11.474375      136.811469      366.499367     3     0     0     0     6   2.250
        68.334599       70.106162      185.563108     1     0     0     0     4   1.560
        45.657811       42.694169      671.967690     1     5     0     0     2   1.558
        79.729176       60.663435     1057.810220     1     0     0     0     3   1.560
       174.590102       94.344275      141.037698     1     0     0     0     5   1.560
       151.440324      191.038746      642.117715     1     0     0     0     8   1.560
        61.990272      149.307383      130.911032     1     0     0     0     6   1.560
        54.565100       84.449910      726.791929     1     0     0     0     4   1.560
        88.257030       92.097753      478.247689     1     0     0     0     4   1.560
        70.627031       42.481663      328.860207     1     0     0     0     7   1.560
        36.821706       39.979632      791.482583     1     0     0     0     6   1.560
        77.833493       20.269302      365.925210     1     0     0     0     6   1.560
       119.388186      185.670762      269.082711     1     0     0     0     1   1.560
        33.052127       75.386583      110.365197     1     0     0     0     1   1.560
        27.268191       73.534776      110.115197     1     0     0     0     6   1.560
       105.826282        1.835417      178.531035     1     0     0     0     5   1.560
       162.254575      139.054708      575.446023     3     0     0     0     4   2.250
       120.189342      154.449807      172.892693     1     0     0     0     8   1.560
       111.788256      101.407828      102.188943     2     0     0     0     6   1.960
       189.083505       40.018379      259.732705     1     0     0     0     8   1.560
       134.819330      164.772637      247.550195     1     0     0     0     3   1.560
       155.499385      139.224951      940.252724     1     0     0     0     2   1.560
       170.586347      177.470333      803.412698     1     0     0     0     7   1.560
       188.543252       85.590994      756.350198     2     0     0     0     3   1.960
        52.173006      132.250996      576.220193     1     0     0     0     7   1.560
       148.637242      110.542476      299.185189     1     0     0     0     8   1.560
        17.982113      118.547444      320.437691     1     0     0     0     6   1.560
       181.742052       45.564203      676.732705     1     0     0     0     7   1.560
       116.343391       20.621318      111.150201     1     0     0     0     4   1.560
        20.077629      127.354206      865.457680     1     0     0     0     3   1.560
       159.858518       64.028338      177.604340     1     0     0     0     3   1.560
       152.982636       90.674520      229.197701     1     0     0     0     8   1.560
       166.262555       36.894283      282.184911     1     0     0     0     2   1.560
        58.377248       38.989971      511.612710     1     0     0     0     8   1.560
       156.381341       21.892275      573.874260     3     0     0     0     5   2.250
        71.892487      147.107760      237.762704     1     0     0     0     1   1.560
       169.143225       62.284702      273.925210     1     0     0     0     5   1.560
       112.767959       34.426307      229.298502     1     0     0     0     2   1.560
       182.856017      174.533572      926.015176     1     0     0     0     2   1.560
       147.878050      141.719277       83.767701     1     0     0     0     1   1.560
         6.613187      184.757141      408.834200     3     0     0     0     6   2.250
       161.682005      117.619302       91.822701     1     0     0     0     5   1.560
        75.356217       12.919162      608.562722     1     0     0     0     3   1.560
       155.565958       89.633344      125.450204     1     0     0     0     8   1.560
       122.965051      118.772494      423.100198     1     0     0     0     4   1.560
        29.196984      103.804476      512.362710     1     0     0     0     1   1.560
       147.709021      157.136763      641.730202     1     0     0     0     1   1.560
       154.567461      106.544949      283.677712     1     0     0     0     3   1.560
        20.701119       11.586850      615.935220     1     2     0     0     8   1.558
         9.601084       41.842152      567.380227     1     0     0     0     1   1.560
       120.489068       76.905149      334.645211     1     1     0     0     3   1.558
       190.273348       76.652892      723.201046     1     0     0     0     2   1.560
        29.798943      193.842158      642.647683     1     0     0     0     5   1.560
       178.637048       56.168490      172.980202     1     1     0     0     1   1.558
       113.051794      159.276859      518.883467     1     0     0     0     3   1.560
       142.290581      150.449901      972.912820     1     1     0     0     4   1.558
       198.096583      146.934066      111.482697     1     0     0     0     2   1.560
        10.031264      168.677232      206.295205     1     0     0     0     3   1.560
        39.064181       59.770700      914.450173     1     1     0     0     5   1.558
        92.116188       80.686965      350.360048     1     0     0     0     6   1.560
       124.429833       59.617130      158.272698     1     0     0     0     8   1.560
       145.592807       70.871864      247.501036     1     0     0     0     2   1.560
        42.115873        5.731744      238.706033     1     0     0     0     2   1.560
        38.174663       12.488329      342.722125     1     0     0     0     2   1.560
        78.554966       75.286020      583.791924     1     0     0     0     5   1.560
       125.846650      180.794637      434.895211     1     0     0     0     6   1.560
       185.049824       61.962833      744.547585     1     0     0     0     1   1.560
        53.312531       87.551729      173.230202     1     0     0     0     2   1.560
       127.048493      134.479708      190.745202     1     0     0     0     7   1.560
       112.478314      147.638424      629.975198     1     1     0     0     2   1.558
       100.401420       96.437850      110.077698     1     1     0     0     3   1.558
        20.961620       50.457331      558.650185     1     0     0     0     3   1.560
        90.299325       24.157707      148.545205     1     0     0     0     6   1.560
       101.235669      135.024671      132.364067     1     0     0     0     6   1.560
       108.016956       31.562964      129.737702     1     0     0     0     7   1.560
       143.103670       28.315156     1010.142190     1     0     0     0     8   1.560
       184.312322       98.964802      305.723946     2     0     0     0     4   1.960
         5.486825      103.232905      439.945199     1     0     0     0     3   1.560
       103.511062       21.858819      894.681466     2     0     0     0     5   1.960
       126.226068      199.515441      473.261740     2     0     0     0     7   1.960
        15.354187       20.831560      321.947701     1     0     0     0     5   1.560
       151.046938       14.908414      298.176525     2     0     0     0     6   1.960
        73.319435       72.707907      113.777703     1     0     0     0     1   1.560
        18.019185       32.266640      609.285215     1     0     0     0     4   1.560
        14.318307      151.458212      231.250207     1     1     0     0     6   1.558
       137.260131      115.179212      238.389385     1     0     0     0     4   1.560
       175.138001       52.397392       21.957700     1     0     0     0     7   1.560
       153.102571      140.105289       21.705201     1     0     0     0     1   1.560
       190.764683      160.411586      858.442727     1     0     0     0     1   1.560
       167.380797       66.012221      499.679759     2     1     0     0     6   1.963
       174.039043        0.128577      401.504315     1     1     0     0     1   1.558
        50.576989      171.668368      389.377694     1     1     0     0     5   1.558
        50.431434       68.534136      133.425195     1     0     0     0     4   1.560
       192.722022      115.569043      831.552712     1     1     0     0     4   1.558
       146.251941       84.098362      714.327676     1     1     0     0     3   1.558
       108.497940       37.413467      472.360207     1     1     0     0     8   1.558
       121.823390      170.413083      200.565194     1     0     0     0     8   1.560
       140.051418       64.005442      626.052147     1     0     0     0     7   1.560
       117.084713      157.534222      483.370187     1     1     0     0     2   1.558
       160.835353      117.149167       70.590203     1     0     0     0     8   1.560
       111.594882      181.026104      531.855202     1     0     0     0     7   1.560
        94.597179       18.516401      824.882729     1     0     0     0     2   1.560
         1.991929      119.352762      250.857705     1     0     0     0     1   1.560
        92.524608       22.131667      436.820199     2     0     0     0     4   1.960
       112.260191      186.335314      288.557908     1     1     0     0     8   1.558
       173.810030       99.848800     1097.700126     1     1     0     0     3   1.558
       106.509699      120.512018      465.232705     1     0     0     0     2   1.560
       186.679917      155.462370      319.502694     1     0     0     0     2   1.560
        59.669169       52.032102      374.107705     1     0     0     0     8   1.560
        84.405225      116.925439      309.322701     1     1     0     0     6   1.558
       193.193881       55.771421      419.245187     1     0     0     0     8   1.560
         9.649602       94.642955      307.490212     1     0     0     0     8   1.560
        74.956637      130.326687      411.152688     2     0     0     0     8   1.960
        95.901241       78.196453      686.265206     2     0     0     0     7   1.960
       199.810280      174.087266      183.956698     2     1     0     0     4   1.963
        62.988193       77.323458      605.962685     1     0     0     0     5   1.560
       189.806646       97.502225      367.032674     1     0     0     0     1   1.560
        35.101606       76.485446      781.700173     1     0     0     0     6   1.560
       106.998834      105.974116      592.145180     1     0     0     0     8   1.560
        66.680441      172.367452      100.735200     1     0     0     0     7   1.560
        16.995032       52.108677      212.340203     1     0     0     0     3   1.560
        11.900521      117.462180      444.002694     1     0     0     0     7   1.560
       124.238833      121.149369      469.703530     1     0     0     0     3   1.560
       128.992573       89.949915      615.217690     1     0     0     0     1   1.560
        93.376874        3.372620       14.446212     1     0     0     0     4   1.560
        24.994017       98.468835     1105.565224     1     3     0     0     3   1.558
        85.608000       48.933418      536.402688     1     1     0     0     2   1.558
        34.109142      109.856367      629.225198     1     0     0     0     5   1.560
       189.756243       23.109140      326.357705     1     0     0     0     7   1.560
       141.540682       81.298794      328.817696     1     0     0     0     6   1.560
       133.333847       63.600687      273.640206     2     0     0     0     2   1.960
       119.463779       74.273888      684.506448     2     0     0     0     2   1.960
        32.695410       64.844390      366.652688     1     2     0     0     1   1.558
       184.730104       44.872377      753.752724     1     0     0     0     3   1.560
       177.064225       22.875217      600.410195     1     0     0     0     6   1.560
       170.166854       17.735203      636.979387     1     0     0     0     5   1.560
        88.103368       81.607559      192.630196     1     0     0     0     7   1.560
       111.160499      101.612316      370.912698     1     0     0     0     4   1.560
        38.927400      107.167220      673.488657     1     1     0     0     6   1.558
        96.281070      141.177330      465.396025     1     0     0     0     8   1.560
        57.114327       86.434286       83.382699     1     0     0     0     5   1.560
       160.605943      146.004485      607.785195     2     1     0     0     7   1.963
        85.463559        3.971358      380.935822     4     1     0     0     2   2.474
       142.516816      156.466808      888.400185     1     0     0     0     3   1.560
        46.349059      196.196748      232.070199     1     1     0     0     8   1.558
       131.252580      161.138566      336.780190     1     0     0     0     6   1.560
        91.303339      155.680596      218.260201     1     0     0     0     5   1.560
        73.102160       62.289786      623.002724     1     0     0     0     1   1.560
       159.969577      138.194373      404.340188     1     0     0     0     2   1.560
       125.922000      113.299020      691.345213     1     0     0     0     3   1.560
        60.604997      160.147459      725.067727     1     0     0     0     2   1.560
        53.451572      123.914313     1064.008218     1     1     0     0     5   1.558
       113.930981       56.609810      244.316099     1     1     0     0     2   1.558
       101.428020       76.940105      286.652688     1     0     0     0     2   1.560
        86.916653      161.537749      259.080658     2     1     0     0     7   1.963
        63.660656      138.310866      439.818541     1     0     0     0     6   1.560
        69.892793       11.210948      921.840188     1     1     0     0     4   1.558
        66.612459      128.563064      680.500222     1     0     0     0     6   1.560
       170.296608       61.839245      651.947671     1     0     0     0     4   1.560
       153.025108      197.848320      411.967610     1     1     0     0     8   1.558
        70.063337      151.062987      298.072701     1     0     0     0     6   1.560
        61.039350      155.980955      310.308938     2     0     0     0     6   1.960
       114.429195      116.830486      680.655190     1     1     0     0     6   1.558
       145.428856      137.965622      558.475198     1     0     0     0     1   1.560
       176.590209      175.028435      559.612710     1     0     0     0     1   1.560
         3.109677       13.835894      318.062691     1     0     0     0     3   1.560
         9.378643      105.549603      438.787290     1     1     0     0     4   1.558
        76.376058       63.999150      408.922707     1     0     0     0     3   1.560
       120.089608       68.109904      925.845193     1     0     0     0     6   1.560
       164.454245      185.890671      135.562702     1     0     0     0     2   1.560
        10.642566       28.124961      377.821239     2     0     0     0     3   1.960
       126.084572      174.183239      293.847695     1     0     0     0     2   1.560
       186.833971       48.728266      675.985207     1     0     0     0     4   1.560
       125.359766       58.430510      683.930215     1     0     0     0     7   1.560
       144.560345      111.948350       76.282700     1     0     0     0     6   1.560
       157.300335       78.654404      197.273949     2     0     0     0     2   1.960
        90.057184      127.493162      471.720193     1     0     0     0     2   1.560
       198.563771      161.248766      421.832711     1     0     0     0     2   1.560
       192.142496       64.247419       56.622700     1     0     0     0     3   1.560
       108.047836      189.106003      389.712685     1     0     0     0     6   1.560
       166.423177      181.941680      404.295205     1     3     0     0     3   1.558
       113.848334       69.111651       33.181891     1     0     0     0     8   1.560
       170.863060      134.084244      280.302692     1     0     0     0     8   1.560
        75.665700        5.159563      749.410195     1     0     0     0     8   1.560
        25.267396       97.488940      732.125222     1     1     0     0     6   1.558
        70.561232      160.145269      607.192696     2     1     0     0     5   1.963
       143.255265       82.094176      378.213530     1     0     0     0     6   1.560
        58.050010      197.090355      364.616870     1     0     0     0     7   1.560
       142.951253      171.165679      448.402688     1     2     0     0     3   1.558
       161.743211      141.792184      571.946877     2     0     0     0     3   1.960
        93.971341       72.160313      430.172707     3     0     0     0     2   2.250
       112.083643       92.285247      346.126870     1     0     0     0     3   1.560
        16.595319       86.822996      732.805215     1     1     0     0     2   1.558
        62.207528       67.537839      244.262704     1     0     0     0     6   1.560
       112.267565       96.157787      521.741880     1     0     0     0     8   1.560
        55.202749       68.536439      282.658639     2     0     0     0     5   1.960
        39.028061      174.795381      256.065194     1     0     0     0     8   1.560
        85.489297       99.953054      651.952676     1     0     0     0     8   1.560
        86.576849      178.188284      531.642678     1     0     0     0     2   1.560
       113.048869      106.754060      695.085183     1     0     0     0     6   1.560
        29.702013       29.824213      542.770180     1     1     0     0     2   1.558
        41.095778      120.708288      612.585183     1     0     0     0     4   1.560
        45.549604      111.269382      712.457680     1     0     0     0     3   1.560
       105.067747      159.121624      422.000191     1     0     0     0     1   1.560
       148.830656       47.108428      299.986443     2     0     0     0     4   1.960
        20.820690      196.087268      686.492715     1     0     0     0     7   1.560
        96.657360      153.645852      187.685204     1     0     0     0     3   1.560
         8.281346      146.955332       77.118947     2     0     0     0     8   1.960
        99.866161      188.269017      714.945229     1     0     0     0     3   1.560
        13.272266       54.894691       49.895200     1     0     0     0     8   1.560
        78.960629       69.346319       78.737702     1     0     0     0     4   1.560
       159.980118      187.638399       44.970250     1     0     0     0     4   1.560
       195.020993      140.070109       23.122700     1     0     0     0     8   1.560
        27.202101       16.433266      885.197671     1     0     0     0     4   1.560
       130.054192       24.890460      830.074359     1     0     0     0     4   1.560
        89.187139      198.347687       74.701035     1     0     0     0     8   1.560
       199.742749       95.706083      484.187691     1     0     0     0     5   1.560
         4.973713       46.319680      965.436867     1     1     0     0     1   1.558
        10.736054       53.530253      262.440395     2     0     0     0     3   1.960
       162.261671      131.474488      352.631875     1     0     0     0     1   1.560
       152.039312      183.579792      634.285276     1     0     0     0     4   1.560
       130.391249      128.421251      132.037698     1     0     0     0     5   1.560
       162.650788      170.285331      295.265073     2     0     0     0     8   1.960
       133.262224        0.951221      158.462701     1     1     0     0     7   1.558
       178.392002       42.135683      744.997720     1     0     0     0     3   1.560
       167.238273       19.935887      218.422707     1     0     0     0     3   1.560
        38.225232       46.755259      391.809365     3     0     0     0     1   2.250
       175.888632      150.511212      709.457740     1     2     0     0     8   1.558
        28.005834       68.975553      794.125222     1     0     0     0     8   1.560
        55.633497      114.763735      341.900185     1     0     0     0     1   1.560
       196.589725       54.386279      310.895211     1     0     0     0     2   1.560
       190.005164        5.232552      502.320199     1     0     0     0     5   1.560
       194.113779       80.647631      754.257729     1     0     0     0     7   1.560
       103.637297        6.934888      565.370217     1     0     0     0     2   1.560
       104.897082      166.818757      482.710211     2     1     0     0     7   1.963
       125.765557       79.694291      635.085183     1     0     0     0     5   1.560
        32.367780      198.227619      323.470095     1     0     0     0     4   1.560
        10.675272       71.541406      676.407693     1     0     0     0     4   1.560
       199.761636      196.498350     1053.672158     1     0     0     0     8   1.560
        84.217526        3.677383      384.910195     1     0     0     0     1   1.560
        43.426312      173.554317      764.992715     1     0     0     0     1   1.560
         9.700738       44.657297      370.392709     1     0     0     0     2   1.560
        21.497033       21.448397      336.875191     1     1     0     0     8   1.558
        27.040208        2.495045      410.817696     1     0     0     0     3   1.560
       126.778587       55.846269      156.672707     1     0     0     0     3   1.560
        46.265841      118.401365      413.073952     2     0     0     0     5   1.960
       187.860992       97.172489      354.922515     3     0     0     0     1   2.250
        84.543816        1.534829      592.904397     1     0     0     0     7   1.560
       107.305330       82.761059      206.217705     1     0     0     0     4   1.560
        64.630004      125.036369      482.295205     1     0     0     0     1   1.560
        30.809460       25.439056      113.160360     1     0     0     0     6   1.560
        14.227881      105.127552      552.212685     1     0     0     0     7   1.560
        77.648453      178.444749       42.657700     1     0     0     0     5   1.560
       133.573992      131.393796      139.041451     2     0     0     0     3   1.960
        38.823221       13.781396      253.202706     1     0     0     0     2   1.560
        47.108089      167.361482      765.713558     1     0     0     0     5   1.560
        14.075448       37.417716      259.710213     1     1     0     0     5   1.558
        65.849278      173.365278       48.347699     1     0     0     0     5   1.560
        81.813638       32.962340     1036.337197     1     0     0     0     7   1.560
        46.335212       84.626211      848.940224     1     0     0     0     2   1.560
       138.731856      191.948392      169.289576     2     0     0     0     4   1.960
        74.704869      181.607273     1008.195229     1     1     0     0     4   1.558
       185.883785       50.065877      736.577676     1     0     0     0     1   1.560
        97.510229      131.895342      134.668954     2     1     0     0     5   1.963
       187.097316       70.332145      238.450204     1     0     0     0     6   1.560
       167.419079       12.647893      167.249385     2     0     0     0     5   1.960
        53.474890      163.334784      180.367699     1     0     0     0     6   1.560
       117.585023      104.361562      197.474572     2     1     0     0     4   1.963
       113.577208       75.798329       51.379090     1     0     0     0     7   1.560
        58.428730      134.493831       12.630200     1     0     0     0     1   1.560
       156.344812       23.437051      977.720193     1     0     0     0     6   1.560
        64.926208       67.176533      452.817696     1     0     0     0     8   1.560
       107.825285       57.730609       98.640198     1     0     0     0     6   1.560
       143.729298       51.505840       51.722699     1     0     0     0     5   1.560
       133.598960      141.355683      126.635166     2     0     0     0     4   1.960
        84.705683      177.866438      265.011854     1     0     0     0     5   1.560
       171.853474      110.186967      443.172707     1     0     0     0     8   1.560
        12.971351       79.982134      163.987695     1     0     0     0     2   1.560
        44.357145       91.723547       92.572701     1     0     0     0     8   1.560
       157.327396       10.554399      674.880227     1     3     0     0     3   1.558
         2.006662      117.013154      474.977700     1     0     0     0     8   1.560
        47.373083      142.436531      715.862710     1     0     0     0     1   1.560
       117.912239      172.684401      384.672707     1     0     0     0     1   1.560
       161.028725      163.426759      454.692696     1     0     0     0     8   1.560
        60.811439      189.774248      684.102578     1     1     0     0     8   1.558
        12.315178       71.827080      566.782693     1     0     0     0     1   1.560
       163.726635       84.990019      356.327706     1     0     0     0     8   1.560
        39.059880      195.255843       19.404460     1     0     0     0     2   1.560
         7.176690      143.405344      897.375222     1     0     0     0     7   1.560
       162.390090      164.574451      333.765304     1     0     0     0     2   1.560
        44.883887       20.579700      267.070199     1     0     0     0     2   1.560
        98.117278       15.522900       18.232700     1     0     0     0     5   1.560
       168.241301      110.578930      460.832711     1     0     0     0     3   1.560
       159.425493       12.166646       82.717707     1     0     0     0     2   1.560
        98.383700      119.414854      243.950204     1     0     0     0     1   1.560
       175.198429      134.897219      768.717690     1     2     0     0     6   1.558
       138.063391       97.427916      212.325204     1     0     0     0     6   1.560
        65.039343      163.675963       25.480201     1     0     0     0     5   1.560
       115.060770      104.256655      417.936867     1     0     0     0     2   1.560
         5.444769      198.767708      395.082949     3     0     0     0     3   2.250
        11.024773       20.893245      376.735207     1     0     0     0     1   1.560
       181.328647       48.478671      155.520196     1     0     0     0     6   1.560
       113.014311      122.330208      399.957711     1     0     0     0     4   1.560
        51.326859      158.700181      179.312702     1     0     0     0     3   1.560
       132.139590       52.589990      533.417765     1     1     0     0     5   1.558
       168.090112       43.533455      320.172707     1     0     0     0     3   1.560
        94.979787       44.544786      325.077706     1     0     0     0     8   1.560
       143.750083      158.870413      226.512696     2     0     0     0     2   1.960
        55.291139       71.616987      276.866448     2     0     0     0     2   1.960
        51.587844      160.064444      187.422707     1     0     0     0     5   1.560
       156.269040       93.957993      638.849323     3     0     0     0     5   2.250
       134.819313       34.827902      226.647698     1     0     0     0     2   1.560
       129.652200       47.710594      630.807621     1     0     0     0     7   1.560
        28.268507      148.288312       18.147700     1     0     0     0     4   1.560
        65.318107       69.718601      343.746875     1     0     0     0     3   1.560
        59.811357      119.869045      291.397713     1     1     0     0     1   1.558
       107.565136       19.851617      247.891448     2     0     0     0     8   1.960
       168.367167      190.807301      440.240212     1     0     0     0     6   1.560
       119.681649       67.977824      929.230202     1     0     0     0     2   1.560
        50.373248       84.662323      219.089369     1     0     0     0     8   1.560
         2.682159      121.995987      141.316453     2     0     0     0     7   1.960
       153.392982       77.163315      628.062722     1     0     0     0     5   1.560
       157.950075      155.136537      311.950204     1     0     0     0     5   1.560
        84.194620       26.199324      399.227700     1     0     0     0     3   1.560
        75.195899      109.835559      443.857705     1     0     0     0     6   1.560
        65.227873       27.008121      109.372697     1     0     0     0     1   1.560