ITEM: TIMESTEP
0
ITEM: NUMBER OF ATOMS
         216
ITEM: BOX BOUNDS pp pp pp
  0.0000000E+00   200.000000000000     
  0.0000000E+00   200.000000000000     
  0.0000000E+00   5000.00000000000     
ITEM: ATOMS x y z f1 f2 f3 f4 orient radius
       113.047142       55.032526      175.782693     1     0     0     0     3   1.560
       198.615135      139.248590      344.455209     1     0     0     0     3   1.560
        31.603748      152.012359      554.347714     1     0     0     0     4   1.560
        94.953230       24.730104      132.350198     1     0     0     0     6   1.560
        63.529224       20.846921      598.410195     1     0     0     0     4   1.560
        72.275704      163.270861      239.999367     1     0     0     0     5   1.560
       116.058602      104.097346     1072.205239     1     0     0     0     8   1.560
         9.754464      168.238838      118.867699     1     0     0     0     6   1.560
        62.267246       31.175367      578.032693     1     0     0     0     4   1.560
       176.544655       10.575329      519.672707     1     0     0     0     3   1.560
       131.430899        0.575212      551.697671     1     0     0     0     6   1.560
       192.524448      193.156939      226.448952     2     1     0     0     2   1.963
        52.192996      111.601123      426.220193     1     0     0     0     4   1.560
         1.945296      142.342042      634.595193     1     0     0     0     8   1.560
        91.987555       24.278417      222.245202     1     0     0     0     8   1.560
        20.383551      103.054418      165.677697     1     0     0     0     1   1.560
       174.590102       94.344275      141.037698     1     0     0     0     5   1.560
       127.649341      101.943113      664.097695     1     0     0     0     3   1.560
        61.990272      149.307383      130.911032     1     0     0     0     6   1.560
       169.130095       89.736783      182.495202     1     0     0     0     4   1.560
        22.966079      133.688269      245.867699     1     0     0     0     1   1.560
       120.489068       76.905149      334.645211     1     0     0     0     4   1.560
        68.495940       25.725410      556.782693     1     0     0     0     1   1.560
       105.349052      152.211673      487.122689     1     0     0     0     4   1.560
       119.388186      185.670762      269.082711     1     0     0     0     1   1.560
        33.052127       75.386583      110.365197     1     0     0     0     1   1.560
        27.268191       73.534776      110.115197     1     0     0     0     6   1.560
        39.645848      119.650101      920.875222     1     0     0     0     3   1.560
       106.850821      112.365853      160.517486     1     1     0     0     3   1.558
       103.629532      134.597348      132.626031     1     0     0     0     5   1.560
        63.074499       89.667442      713.315184     1     0     0     0     1   1.560
        97.510229      131.895342      134.668954     2     0     0     0     5   1.960
       199.780248       16.061419       61.182702     1     0     0     0     7   1.560
        11.032073       23.237495      561.655190     1     0     0     0     5   1.560
        76.129580      186.914442      813.925210     1     0     0     0     3   1.560
        51.891936      163.045479      585.412698     1     0     0     0     3   1.560
        52.173006      132.250996      576.220193     1     0     0     0     7   1.560
       101.819914      132.641426      504.395211     1     0     0     0     6   1.560
        67.923618      164.255082      154.645196     1     0     0     0     4   1.560
       162.583361      165.091172      334.135201     2     0     0     0     1   1.960
       116.343391       20.621318      111.150201     1     0     0     0     4   1.560
       104.897082      166.818757      482.710211     2     0     0     0     1   1.960
        55.564306      170.985369       82.620202     1     1     0     0     4   1.558
       152.982636       90.674520      229.197701     1     0     0     0     8   1.560
        16.961489      196.394545     1050.652261     1     0     0     0     6   1.560
       188.053530       41.474501      721.530190     1     1     0     0     8   1.558
       183.806344      171.570273      278.505196     1     0     0     0     6   1.560
        71.892487      147.107760      237.762704     1     0     0     0     1   1.560
        90.309624       55.210389      234.332696     1     0     0     0     4   1.560
       112.821587       35.072450      228.537698     2     0     0     0     8   1.960
       147.473997      145.583291       88.842713     1     0     0     0     3   1.560
       147.878050      141.719277       83.767701     1     0     0     0     1   1.560
        80.618040      141.983315       83.847703     1     0     0     0     2   1.560
       161.682005      117.619302       91.822701     1     0     0     0     5   1.560
        53.314835      130.893865     1068.398007     1     0     0     0     5   1.560
       172.604925      101.028250      716.112588     1     0     0     0     2   1.560
       122.965051      118.772494      423.100198     1     0     0     0     4   1.560
        29.196984      103.804476      512.362710     1     0     0     0     1   1.560
        56.508996        5.016512      321.922707     1     0     0     0     7   1.560
        50.576989      171.668368      389.377694     1     0     0     0     5   1.560
        21.497033       21.448397      336.875191     1     0     0     0     1   1.560
       194.968201      135.967000      204.973321     2     0     0     0     1   1.960
       172.189001       27.381320      344.410195     1     0     0     0     8   1.560
        90.780880       47.989433      282.082691     1     0     0     0     2   1.560
       111.391510      146.977132      519.042702     1     2     0     0     3   1.558
       178.637048       56.168490      172.980202     1     1     0     0     1   1.558
       192.722022      115.569043      831.552712     1     0     0     0     4   1.560
        84.174533      181.992999      695.827676     1     1     0     0     1   1.558
       179.897392       37.453841      195.450204     1     0     0     0     1   1.560
        98.347202      101.381391      108.811005     1     0     0     0     3   1.560
        24.994017       98.468835     1105.565224     1     0     0     0     4   1.560
        72.701354       64.970826      319.911863     1     0     0     0     2   1.560
         1.948430      147.023362      218.112695     1     0     0     0     7   1.560
        92.562474       72.864462      825.615212     1     0     0     0     7   1.560
        74.778264       88.256917      119.220200     1     0     0     0     8   1.560
       167.415270       39.832730      163.390177     1     0     0     0     3   1.560
         5.163627      104.742269      648.096006     1     1     0     0     4   1.558
       125.846650      180.794637      434.895211     1     0     0     0     6   1.560
        20.701119       11.586850      615.935220     1     1     0     0     4   1.558
        53.312531       87.551729      173.230202     1     0     0     0     2   1.560
       127.048493      134.479708      190.745202     1     0     0     0     7   1.560
        14.960480       84.739718      301.810189     1     0     0     0     6   1.560
       100.401420       96.437850      110.077698     1     1     0     0     3   1.558
        83.697952      178.355780      263.914809     3     0     0     0     1   2.250
        35.155348       87.038685      157.418067     1     0     0     0     8   1.560
        76.533494      169.381942      251.837701     1     0     0     0     1   1.560
       108.016956       31.562964      129.737702     1     0     0     0     7   1.560
        64.044910      111.098974       19.350199     1     0     0     0     7   1.560
       184.312322       98.964802      305.723946     2     0     0     0     4   1.960
        45.657811       42.694169      671.967690     1     3     0     0     8   1.558
       174.913318      140.423203      374.245202     2     0     0     0     1   1.960
        33.961291      167.399155      612.285195     1     0     0     0     7   1.560
        15.354187       20.831560      321.947701     1     0     0     0     5   1.560
       151.046938       14.908414      298.176525     2     0     0     0     6   1.960
       140.990304      141.142294      276.035195     1     0     0     0     6   1.560
        97.182649      135.061344      448.212685     1     1     0     0     1   1.558
        14.318307      151.458212      231.250207     1     0     0     0     4   1.560
       126.008978      146.856253      519.925210     1     0     0     0     4   1.560
       175.138001       52.397392       21.957700     1     0     0     0     7   1.560
       153.102571      140.105289       21.705201     1     0     0     0     1   1.560
        93.374486       70.188436     1083.565224     1     1     0     0     1   1.558
        11.687464       32.351806      526.567727     1     0     0     0     3   1.560
       174.039043        0.128577      401.504315     1     1     0     0     1   1.558
         3.057184       58.277097      259.277688     1     0     0     0     5   1.560
       157.327396       10.554399      674.880227     1     1     0     0     8   1.558
       150.619288      152.581052      114.560197     1     0     0     0     5   1.560
       163.999293      119.105222      111.977700     1     0     0     0     3   1.560
       192.087306       14.673215       50.240201     1     0     0     0     3   1.560
       121.823390      170.413083      200.565194     1     0     0     0     8   1.560
       120.587306      165.901120      200.797707     1     0     0     0     2   1.560
        37.203273       40.677243      201.670205     1     0     0     0     4   1.560
       160.835353      117.149167       70.590203     1     0     0     0     8   1.560
         8.521234       69.909846      982.253559     1     0     0     0     2   1.560
       149.194138      101.079670      486.961027     1     0     0     0     8   1.560
       175.869246        8.214113      529.682717     1     0     0     0     6   1.560
        35.273124      186.815677      167.387704     1     0     0     0     7   1.560
       112.094515      186.929450      289.232695     2     1     0     0     8   1.963
        78.691070      165.641689      263.400185     1     0     0     0     8   1.560
        67.076407      100.521361      962.402688     1     1     0     0     2   1.558
         0.249251      104.446046      534.370217     1     0     0     0     4   1.560
        59.669169       52.032102      374.107705     1     0     0     0     8   1.560
        54.051517       73.666337      810.947671     1     1     0     0     3   1.558
        13.896960       89.389067      195.287698     1     0     0     0     8   1.560
       168.972888      197.411100      328.603951     2     0     0     0     4   1.960
        74.956637      130.326687      411.152688     2     0     0     0     8   1.960
        52.305155      130.408079      463.140206     1     0     0     0     1   1.560
        72.786009       86.148766      485.972695     1     0     0     0     4   1.560
        25.247714       85.292453     1211.995156     1     0     0     0     7   1.560
       172.563776      157.755708      537.293954     2     0     0     0     7   1.960
        51.398051       95.788427      100.795221     1     0     0     0     8   1.560
       117.585023      104.361562      197.474572     2     0     0     0     8   1.960
        39.484997       35.896973      982.777688     1     0     0     0     1   1.560
       170.378939      136.607709      365.232705     1     0     0     0     6   1.560
       157.113086       87.047909      447.310189     1     0     0     0     7   1.560
        22.469128      131.408936      915.245217     1     1     0     0     2   1.558
        14.998569      104.704402      755.725198     1     0     0     0     5   1.560
        49.834629        7.956477      874.355202     1     0     0     0     8   1.560
        79.943759       46.624485     1429.557168     1     1     0     0     4   1.558
        85.608000       48.933418      536.402688     1     1     0     0     2   1.558
        38.598606       35.076983     1034.850259     1     1     0     0     3   1.558
        21.353306       48.084777      350.309717     1     0     0     0     8   1.560
       141.540682       81.298794      328.817696     1     0     0     0     6   1.560
       163.436999       45.361113      295.352700     1     1     0     0     5   1.558
       119.463779       74.273888      684.506448     2     0     0     0     2   1.960
       174.175477       37.429004      243.442696     1     0     0     0     7   1.560
       134.854524      178.769351      478.257699     1     1     0     0     5   1.558
        33.862523       71.212362      824.932717     1     0     0     0     1   1.560
       174.963441       85.596973      483.367715     1     1     0     0     7   1.558
        88.103368       81.607559      192.630196     1     0     0     0     7   1.560
        84.836488      101.873928      423.515177     1     0     0     0     7   1.560
        51.679657        3.901300      543.000222     1     1     0     0     7   1.558
        96.281070      141.177330      465.396025     1     0     0     0     8   1.560
        57.114327       86.434286       83.382699     1     0     0     0     5   1.560
       164.730698       12.734459      633.568384     1     0     0     0     1   1.560
       152.976388      196.882285      412.612695     2     0     0     0     6   1.960
        54.954415       36.642294      345.940194     1     0     0     0     8   1.560
        46.349059      196.196748      232.070199     1     1     0     0     8   1.558
       131.252580      161.138566      336.780190     1     0     0     0     6   1.560
       142.265308      181.087034       27.792701     1     0     0     0     2   1.560
        99.293262       51.623045      645.605202     1     0     0     0     3   1.560
       110.773243      179.542966      524.532693     1     0     0     0     1   1.560
        27.621265      122.851072      588.325173     1     0     0     0     2   1.560
         1.160002      138.625435      612.012673     1     3     0     0     4   1.558
        55.287328      180.099502      664.070229     1     0     0     0     5   1.560
        21.318018       18.188563      342.816262     1     0     0     0     6   1.560
        84.345096       85.289112      507.012704     1     1     0     0     7   1.558
        86.916653      161.537749      259.080658     2     0     0     0     4   1.960
        53.186034      178.468712     1019.507699     2     0     0     0     8   1.960
       199.991037      173.868373      184.358534     3     0     0     0     4   2.250
       175.888632      150.511212      709.457740     1     1     0     0     2   1.558
       170.296608       61.839245      651.947671     1     0     0     0     4   1.560
        78.679304      171.106932      299.372689     1     0     0     0     3   1.560
        70.063337      151.062987      298.072701     1     0     0     0     6   1.560
        61.039350      155.980955      310.308938     2     0     0     0     6   1.960
       199.813122      145.464966      787.977700     1     1     0     0     8   1.558
        41.686757       38.745008      309.115212     1     0     0     0     5   1.560
       133.262224        0.951221      158.462701     1     0     0     0     4   1.560
       137.476941      134.947296      189.888509     1     1     0     0     2   1.558
        25.590141        6.488683      122.818536     1     0     0     0     2   1.560
        28.036918        2.723302      124.105202     1     0     0     0     8   1.560
         7.152192       83.333219     1293.782143     1     4     0     0     5   1.558
       156.237977       70.577446      486.752694     1     0     0     0     5   1.560
       112.864446      154.039475      503.895211     1     1     0     0     3   1.558
       126.084572      174.183239      293.847695     1     0     0     0     2   1.560
       195.869068      170.239926      401.078957     2     0     0     0     5   1.960
       166.212940       69.175961      437.845193     1     0     0     0     4   1.560
       144.560345      111.948350       76.282700     1     0     0     0     6   1.560
       157.300335       78.654404      197.273949     2     0     0     0     2   1.960
        90.057184      127.493162      471.720193     1     0     0     0     2   1.560
       180.097223       53.185301      254.380196     1     0     0     0     7   1.560
         3.649225      184.569212      319.155190     1     0     0     0     3   1.560
         6.383292       62.008362      258.046005     1     0     0     0     6   1.560
       166.423177      181.941680      404.295205     1     3     0     0     3   1.558
       113.848334       69.111651       33.181891     1     0     0     0     8   1.560
        89.822452      149.465335      467.355202     1     0     0     0     3   1.560
       175.198429      134.897219      768.717690     1     0     0     0     7   1.560
        25.267396       97.488940      732.125222     1     1     0     0     6   1.558
       155.046908       57.451703      383.297707     1     0     0     0     3   1.560
       145.670931        8.479657      478.122689     1     0     0     0     2   1.560
        40.722933      139.623700      341.472695     1     0     0     0     7   1.560
       142.951253      171.165679      448.402688     1     2     0     0     3   1.558
        53.451572      123.914313     1064.008218     1     0     0     0     8   1.560
        71.239658      151.966315     1074.932168     1     0     0     0     7   1.560
       138.938606      119.945369      736.757729     1     1     0     0     8   1.558
        16.595319       86.822996      732.805215     1     1     0     0     2   1.558
       114.386335       57.310140      244.360633     2     0     0     0     5   1.960
       159.996186      130.773283      982.735207     1     3     0     0     3   1.558
       101.565619       95.185666      172.155205     1     0     0     0     2   1.560
       172.013617       37.861569      177.812707     1     0     0     0     4   1.560
        84.849676      170.547605       46.003949     2     0     0     0     8   1.960
        86.576849      178.188284      531.642678     1     0     0     0     2   1.560
       128.096869      143.740286      518.365212     1     0     0     0     3   1.560
       154.818214      177.532911      802.647683     1     2     0     0     5   1.558
        91.541211      112.957422      313.197701     1     0     0     0     6   1.560
        84.405225      116.925439      309.322701     1     0     0     0     3   1.560
       114.537305       40.513452      271.505196     1     0     0     0     8   1.560
