ITEM: TIMESTEP
0
ITEM: NUMBER OF ATOMS
        2699
ITEM: BOX BOUNDS pp pp pp
  0.0000000E+00   200.000000000000     
  0.0000000E+00   200.000000000000     
  0.0000000E+00   5000.00000000000     
ITEM: ATOMS x y z f1 f2 f3 f4 orient radius
        95.821099      157.795232      268.925406     2     0     0     0     6   1.960
        80.457012       83.462737      188.987695     1     0     0     0     1   1.560
       152.670982       48.931062      229.215203     1     0     0     0     1   1.560
        24.009958      178.080028      344.357705     1     0     0     0     2   1.560
        20.085982       85.222654     1119.645141     1     4     0     0     6   1.558
       138.305149      183.767985      108.262701     3     0     0     0     8   2.250
       114.060522      181.848884      425.930215     1     0     0     0     5   1.560
        50.866834       62.715804      676.535195     1     0     0     0     1   1.560
       182.960258      186.234830      368.772713     1     1     0     0     2   1.558
       140.233146       37.499716      297.725198     1     0     0     0     7   1.560
       194.253218      199.779625      110.157700     2     0     0     0     6   1.960
       169.786733       33.878457      154.172707     1     0     0     0     1   1.560
       133.053382      142.145320      717.852700     1     0     0     0     5   1.560
       162.507834      189.596979      131.102700     1     1     0     0     5   1.558
       103.826770      182.589637      470.537698     1     0     0     0     4   1.560
        55.007033       73.116844      176.917702     1     0     0     0     1   1.560
        94.686233       78.700130      468.540200     1     0     0     0     4   1.560
       188.770175      114.984051      519.092690     1     2     0     0     8   1.558
       154.895950       16.691676      811.469359     1     0     0     0     6   1.560
        69.607327       99.149734      736.597695     1     2     0     0     3   1.558
        20.912041      181.854409       98.714366     2     1     0     0     7   1.963
        52.932573      196.146602      441.590188     1     0     0     0     4   1.560
         2.899976       67.774808       41.320066     1     0     0     0     5   1.560
        84.600593      161.954734      449.517709     1     0     0     0     4   1.560
       101.447907       16.987599      777.351449     2     1     0     0     1   1.963
       174.129778       69.214793      977.841958     1     1     0     0     8   1.558
       138.308526      189.575823      308.225863     1     2     0     0     4   1.558
       133.025428      140.897273      713.417702     1     0     0     0     6   1.560
        86.648283      176.621305       59.192700     1     0     0     0     2   1.560
        44.542602      174.992407      107.296866     3     0     0     0     7   2.250
        77.008089      151.225477      458.348156     1     0     0     0     2   1.560
       191.651284      194.892218       71.005196     1     0     0     0     7   1.560
        97.275900       42.441878       37.846450     2     0     0     0     1   1.960
       138.469277      164.832501      330.748955     2     3     0     0     3   1.963
        59.162326      162.651555      430.735207     2     0     0     0     6   1.960
         1.599076       92.427368       26.583946     1     0     0     0     4   1.560
       153.979364      103.624459        9.394116     1     0     0     0     8   1.560
       166.126113      107.670604       43.787701     1     1     0     0     7   1.558
        43.449184        6.007715      375.022713     1     1     0     0     1   1.558
       125.052223      143.408215      272.322701     1     1     0     0     8   1.558
         0.615657       47.256596      232.987695     1     0     0     0     7   1.560
         7.596586      151.226091      753.051535     1     3     0     0     1   1.558
       146.844127        5.234371      220.125207     1     0     0     0     5   1.560
       161.916863      133.133490      630.827753     1     0     0     0     8   1.560
        89.087126      197.727761      289.585213     1     0     0     0     1   1.560
        25.747350      103.701498      251.546798     1     0     0     0     1   1.560
       138.096894       72.464005      403.370187     1     0     0     0     7   1.560
         9.499335       93.485836      199.647698     1     0     0     0     3   1.560
       100.341995       54.258246      725.538572     1     0     0     0     1   1.560
       129.890445       67.356343      118.212701     1     0     0     0     4   1.560
       190.306976      145.880870      465.940194     1     0     0     0     4   1.560
       145.072031      197.056407      217.385201     1     0     0     0     8   1.560
        40.130166      196.414096      475.217386     1     0     0     0     2   1.560
        35.461537      158.087150      136.112695     1     0     0     0     5   1.560
        84.349887      190.350323        7.650478     1     0     0     0     1   1.560
       121.726401       26.152585      962.615212     1     1     0     0     3   1.558
        23.098521      109.065683      802.137022     1     0     0     0     7   1.560
        96.430532       31.880247       69.537698     1     0     0     0     3   1.560
        75.592266      156.073343      328.810189     1     1     0     0     3   1.558
        43.999361        3.517810      759.090188     1     0     0     0     5   1.560
       135.152703       27.074760       58.065202     1     0     0     0     1   1.560
        37.400128      149.862039       30.365201     1     0     0     0     2   1.560
        41.858653      183.821343      421.907693     1     1     0     0     8   1.558
        96.161222       83.907894      739.112710     1     0     0     0     7   1.560
       123.571578        8.344996      337.762704     1     0     0     0     6   1.560
       106.203941       92.100540      229.807702     1     0     0     0     2   1.560
        71.699603      146.308174      464.581838     1     0     0     0     6   1.560
        51.074974      127.162995      513.273949     2     0     0     0     8   1.960
        79.775000      110.718547      338.844140     1     1     0     0     5   1.558
        39.424245       72.341669      695.697671     1     2     0     0     7   1.558
       133.301261      185.872708       76.366865     1     0     0     0     1   1.560
        87.731206      174.037988      523.255227     2     0     0     0     4   1.960
        85.781771      191.500376      234.987695     1     0     0     0     8   1.560
       162.623771       20.134800      256.083506     1     1     0     0     1   1.558
        95.717160       27.194157       47.107701     1     0     0     0     3   1.560
        91.366896      134.826992       75.705201     1     1     0     0     3   1.558
       181.374942      185.373982      508.541858     1     0     0     0     6   1.560
        26.061405       59.547353      720.400185     1     3     0     0     4   1.558
       115.115339       93.205282      290.853951     2     0     0     0     1   1.960
        19.891494      140.906034      723.917702     1     1     0     0     4   1.558
       131.229337       47.263851      753.402688     1     0     0     0     7   1.560
        71.900386      185.929808      547.023176     1     0     0     0     5   1.560
        14.020497       29.794016      128.340307     1     0     0     0     4   1.560
       176.612456       62.592113      123.062699     1     0     0     0     6   1.560
       123.930068       33.471252      256.002694     1     0     0     0     2   1.560
       104.802769      114.631009      356.692717     1     1     0     0     1   1.558
       146.298312      108.813006      280.442696     2     0     0     0     8   1.960
       147.916210       28.820674      812.680215     1     0     0     0     4   1.560
        86.517141       37.994093      338.477700     1     1     0     0     8   1.558
        18.081396      173.046731      603.570229     1     0     0     0     5   1.560
       120.310571       89.471435      801.755227     1     0     0     0     3   1.560
        12.490312       31.710409      496.822701     1     1     0     0     2   1.558
        28.249698      119.863448      286.306451     2     3     0     0     4   1.963
       129.910373      193.783513       90.172700     1     0     0     0     8   1.560
       170.354679      140.415258      602.961434     2     0     0     0     3   1.960
       163.361105      162.650064      390.255196     1     0     0     0     3   1.560
       173.146071       82.877387      299.055906     1     0     0     0     6   1.560
       123.530817      149.377961      182.979740     1     3     0     0     5   1.558
       162.001474       24.999879      830.895180     1     1     0     0     2   1.558
       164.903532      158.649404        8.701128     1     0     0     0     5   1.560
       188.814894      163.263027      331.437691     1     0     0     0     8   1.560
       160.569889       66.802987      378.852700     1     1     0     0     7   1.558
       113.415075       87.799689       11.910200     1     0     0     0     4   1.560
        58.106025      159.988790      713.788949     2     2     0     0     7   1.963
        69.114132       47.748220       65.095324     1     0     0     0     2   1.560
        13.286737      145.324450      400.280190     1     0     0     0     8   1.560
        95.290422      137.173481      343.551868     1     0     0     0     6   1.560
        71.117096      134.689890      387.876850     1     0     0     0     5   1.560
       119.689005       21.866561      583.210183     1     1     0     0     6   1.558
        24.793110      143.256088      723.095193     1     0     0     0     3   1.560
        89.847002       61.276084      258.185204     2     0     0     0     4   1.960
       140.751010      108.147784      575.910195     1     0     0     0     5   1.560
        36.387500      123.542154      103.581695     2     0     0     0     7   1.960
        84.519494       36.997480      855.761513     2     7     0     0     5   1.963
       182.821489      147.620942      381.862710     1     0     0     0     2   1.560
        93.433199       40.333508      264.969340     1     0     0     0     7   1.560
        24.528083      150.267155      521.747720     1     0     0     0     3   1.560
        96.187213       18.562086      442.373343     2     1     0     0     6   1.963
        44.819346      103.252204       95.001862     1     0     0     0     5   1.560
       171.631087      192.508447      339.260201     1     2     0     0     7   1.558
       185.429003      182.975569      273.003538     1     0     0     0     4   1.560
         0.527644      169.125513      356.575204     1     0     0     0     5   1.560
         3.753079        0.289926      461.590188     1     4     0     0     6   1.558
        75.908049       39.855974      827.109494     1     2     0     0     6   1.558
       101.694139       35.287271      642.210183     1     6     0     0     5   1.558
        74.134135        3.982936      426.192696     1     0     0     0     3   1.560
       103.204742        7.528148      818.970193     2     2     0     0     2   1.963
       198.290356      173.418562     1196.932168     1     2     0     0     5   1.558
        40.222141       94.205742      256.530205     1     0     0     0     7   1.560
        39.928574      149.542475      797.760171     1     5     0     0     8   1.558
        81.503710       60.714809      162.898536     1     0     0     0     1   1.560
        63.784070       99.593645      174.322701     1     0     0     0     2   1.560
        79.511140       13.353660      660.558968     2     0     0     0     5   1.960
       121.048273       86.731175      833.212685     1     0     0     0     8   1.560
       194.144968      185.366681      150.177517     1     0     0     0     3   1.560
        32.548227       84.175327      119.669945     1     1     0     0     5   1.558
        93.376874        3.372620       14.446212     1     0     0     0     4   1.560
        81.209616      198.404277      117.862702     1     0     0     0     6   1.560
       129.936351      191.832996      596.392678     1     6     0     0     8   1.558
        96.918259      127.240919      270.660195     1     0     0     0     7   1.560
        35.304711      118.422806      409.118951     2     2     0     0     1   1.963
       180.307410       76.410987      593.602700     1     0     0     0     7   1.560
        32.881141      188.020804      139.422707     1     0     0     0     7   1.560
       191.594799       47.785256      674.910195     1     0     0     0     7   1.560
       141.352997       41.291409      386.930196     1     0     0     0     7   1.560
         1.023396      129.528909       88.870187     1     1     0     0     2   1.558
       130.855898       69.476927      154.515206     1     0     0     0     2   1.560
       120.316414       71.151224       26.842700     1     0     0     0     7   1.560
       100.059932      154.437409      709.765216     1     1     0     0     6   1.558
        62.940362      149.869458      397.353534     2     4     0     0     4   1.963
       108.444041      191.261446      610.893107     1     2     0     0     1   1.558
       166.508887       92.369951       38.637700     1     0     0     0     4   1.560
        85.485125      197.734619      387.166451     2     1     0     0     5   1.963
         3.661082      197.873937      954.655312     1     0     0     0     2   1.560
        74.160596      153.480699      815.595193     1     0     0     0     5   1.560
        20.059458       86.200487      746.512673     1     2     0     0     6   1.558
        61.325239      144.632139      573.305215     1     2     0     0     6   1.558
         0.877520       25.993850      339.637710     1     0     0     0     6   1.560
       189.585894       53.024029      271.828002     2     0     0     0     1   1.960
       127.284559       42.324545      164.846027     1     1     0     0     2   1.558
        91.963445       47.104830      256.932702     1     0     0     0     6   1.560
        75.906010       98.998266       88.015198     1     0     0     0     2   1.560
       136.028490       13.079336      666.750222     1     0     0     0     8   1.560
       185.403376      177.932117     1068.590249     1     2     0     0     3   1.558
        31.809486       45.459097      137.336919     1     0     0     0     5   1.560
        93.276030       33.072355      398.254256     1     0     0     0     2   1.560
       100.263909      135.764224      265.317696     1     0     0     0     6   1.560
         3.844369       24.854865      144.194360     1     0     0     0     4   1.560
        31.011042      186.783989      651.690224     1     2     0     0     2   1.558
       104.966076       46.144357      382.455209     1     0     0     0     5   1.560
       190.516386       84.100885      179.118528     2     0     0     0     5   1.960
       119.252064      150.341464       85.321919     1     0     0     0     5   1.560
        52.514092       58.167284      254.372704     1     0     0     0     7   1.560
        36.110315       97.585895      709.332680     1     0     0     0     1   1.560
        95.318453       82.305974      270.375191     1     0     0     0     6   1.560
        22.871866      192.008003      872.444375     1     0     0     0     6   1.560
       107.795863      124.456068      104.912700     1     0     0     0     7   1.560
       129.853181      130.263694      487.390206     1     1     0     0     4   1.558
        93.918481       21.035522      753.272683     1     3     0     0     8   1.558
        34.189980       17.767697      102.152703     1     0     0     0     8   1.560
        74.214160      195.422794       39.380200     1     0     0     0     3   1.560
        21.586602       30.289789      196.371855     1     0     0     0     5   1.560
        28.227171      198.729966      853.150185     1     1     0     0     8   1.558
       190.085483       56.660187      277.665200     1     0     0     0     8   1.560
       153.898693      192.818252       26.022889     1     0     0     0     4   1.560
        12.052686      113.596666      800.210183     1     0     0     0     1   1.560
        71.444666       57.066149      475.131020     1     3     0     0     7   1.558
        14.854329       54.139212      479.907804     1     1     0     0     6   1.558
        40.634316      190.429664      392.607270     2     0     0     0     1   1.960
       191.330980       53.589156      657.215188     1     0     0     0     1   1.560
        22.387741       40.509000      392.010201     1     0     0     0     6   1.560
        57.625570      186.022680      319.817696     1     0     0     0     7   1.560
        90.394682      159.240922       48.112698     1     0     0     0     5   1.560
       186.473263      109.822209      302.712685     1     0     0     0     8   1.560
        36.347808       41.941337      361.310189     1     0     0     0     2   1.560
        61.203567      167.011171     1061.727212     1     0     0     0     6   1.560
        73.187362      166.691127      259.412698     1     0     0     0     7   1.560
        46.417012       31.761122      175.622704     1     0     0     0     2   1.560
        21.032317      138.431220      323.335213     1     3     0     0     2   1.558
       146.098590       38.148374      817.162820     1     0     0     0     5   1.560
         3.886677      168.460591      240.622704     1     0     0     0     4   1.560
        56.490560      140.255102       31.485200     1     0     0     0     4   1.560
        52.032111       18.199040      851.582680     1     0     0     0     4   1.560
       112.527165      125.778577      289.825209     2     1     0     0     7   1.963
       121.850376       46.746531      340.800210     1     0     0     0     2   1.560
        13.692098      186.071936      113.101869     2     0     0     0     4   1.960
       178.406692      120.220901      152.387704     1     3     0     0     4   1.558
        58.043409       94.857254      401.967690     1     0     0     0     7   1.560
       182.898162       19.781608      466.452706     1     0     0     0     1   1.560
       150.579420       83.801102      455.800210     1     0     0     0     6   1.560
        64.175738      154.680221      449.207433     1     0     0     0     8   1.560
        11.176923       52.812027      262.254362     1     2     0     0     5   1.558
       105.056857      138.350663      430.725204     3     0     0     0     5   2.250
       145.503487      139.404419      199.372704     1     0     0     0     1   1.560
       179.382205      167.708705      399.510201     1     1     0     0     2   1.558
        36.277926       71.104372      241.170205     1     1     0     0     3   1.558
        74.091120       46.135968      186.345193     1     0     0     0     8   1.560
       188.020296       18.425678      180.527703     1     1     0     0     8   1.558
        85.716686      103.420814      837.605202     1     1     0     0     5   1.558
       146.977670      150.857951      468.370187     1     3     0     0     3   1.558
        52.844851      113.674631      654.756478     2     2     0     0     2   1.963
       164.163880      139.684229     1375.017251     1     6     0     0     6   1.558
        24.231019      141.394594      143.108539     1     0     0     0     8   1.560
       105.508183      191.030801      411.607695     1     3     0     0     8   1.558
       145.127245      102.420513     1216.384714     1     1     0     0     7   1.558
       128.295344      142.183691      878.985207     1     0     0     0     2   1.560
        15.462667      156.601734      124.220200     1     0     0     0     5   1.560
       198.252166       41.103317      126.761868     2     0     0     0     8   1.960
        27.846290       65.549156      588.747720     1     0     0     0     2   1.560
        49.422496      169.821738      428.146015     1     0     0     0     6   1.560
        33.428443      129.001414      859.347695     1     0     0     0     2   1.560
        44.495353      167.896108      781.220818     2     2     0     0     8   1.963
       120.324540       73.427456      136.520603     1     0     0     0     5   1.560
       172.347268       85.235380      432.550210     1     0     0     0     8   1.560
        64.457344      172.137808      779.065224     1     0     0     0     6   1.560
        89.704812      101.361720      298.182481     1     0     0     0     5   1.560
        54.466030       97.307302      113.202698     1     0     0     0     2   1.560
        63.523638       89.184631      840.802712     1     0     0     0     6   1.560
       116.281636      124.804454      337.002694     1     0     0     0     6   1.560
       173.692710        9.818259      917.190224     1     1     0     0     3   1.558
       163.068015      120.724850      101.056875     1     0     0     0     5   1.560
        18.724187      139.808907      223.257699     1     0     0     0     4   1.560
        43.899965      100.668360      184.087701     1     0     0     0     4   1.560
        67.483764       31.737292      508.975198     1     0     0     0     8   1.560
       108.834275      196.145441      332.845193     1     0     0     0     6   1.560
        90.801371       77.798707      583.367715     1     1     0     0     8   1.558
       135.154930      107.920367      695.467751     2     0     0     0     5   1.960
       143.096098       21.528381      350.065194     1     0     0     0     8   1.560
       183.878161       86.156822      178.277148     1     0     0     0     5   1.560
       192.413083       56.280211      188.642693     1     0     0     0     3   1.560
       152.027330       40.569575       50.700112     1     0     0     0     8   1.560
       106.496061        6.646360       30.372700     1     0     0     0     7   1.560
        11.958002      189.669354      241.062707     2     0     0     0     2   1.960
       146.470175      125.779780      122.455201     1     0     0     0     6   1.560
       136.472753       32.168858      937.607705     1     0     0     0     4   1.560
       100.017110      185.906609       44.612698     1     0     0     0     8   1.560
        84.666751      174.028199      451.842690     1     1     0     0     5   1.558
        54.782326       52.216858      511.752694     1     0     0     0     4   1.560
        85.635411      133.270007      472.672707     1     2     0     0     8   1.558
       109.067403      163.804709       97.742699     1     1     0     0     5   1.558
       155.846311      178.554768      474.537698     1     3     0     0     2   1.558
       152.945878      159.326636      632.827676     1     0     0     0     7   1.560
        61.841334       84.018418      161.757699     1     0     0     0     5   1.560
        39.985789      196.442823      521.392678     1     5     0     0     6   1.558
       135.104515       38.180344      121.990686     1     0     0     0     8   1.560
       198.654844       42.675956      389.687691     1     0     0     0     3   1.560
       110.621573      162.053748      914.662698     1     5     0     0     3   1.558
       107.937672        9.570504      923.055215     1     1     0     0     2   1.558
        76.951472      105.617700      416.425210     1     0     0     0     8   1.560
        71.234909       69.527197      777.524331     1     0     0     0     5   1.560
        34.441077      114.369803      563.202676     1     1     0     0     6   1.558
       194.893724        7.685259      721.697671     1     0     0     0     6   1.560
       111.680107      102.601870      774.277688     1     2     0     0     8   1.558
        29.541675      186.603247       65.437677     1     1     0     0     4   1.558
       183.174174        4.222234      149.744368     1     0     0     0     8   1.560
       137.791560       56.369478      741.522683     1     0     0     0     5   1.560
        52.796641       81.796930      559.322037     1     1     0     0     6   1.558
        85.209127       19.718717      204.086158     1     0     0     0     8   1.560
       181.228067      153.149418      282.640387     1     0     0     0     7   1.560
       152.742865       89.126337      457.332696     2     0     0     0     1   1.960
       119.188009      167.147872      280.737710     1     0     0     0     4   1.560
       156.345125       86.647277       12.912057     2     0     0     0     1   1.960
        29.113962      143.812083      329.355202     1     1     0     0     5   1.558
       136.471204       77.311604      705.122720     1     0     0     0     8   1.560
       185.331178      167.013001      390.588602     1     0     0     0     8   1.560
        20.454856      169.250468       96.235200     1     0     0     0     6   1.560
       140.619704        7.152644      935.292797     1     0     0     0     4   1.560
       107.366905      121.774934      806.452676     1     0     0     0     8   1.560
       100.548125      166.278729      112.485200     1     0     0     0     4   1.560
       154.182436      153.669536      928.495217     1     2     0     0     1   1.558
        27.189704       58.790116       52.692700     1     0     0     0     8   1.560
       145.835597       83.394308       79.917702     1     0     0     0     7   1.560
       133.993510      164.867812      450.122689     1     0     0     0     4   1.560
        70.315382      104.505204      361.835213     1     0     0     0     1   1.560
        60.473427       70.545922      406.010201     1     0     0     0     3   1.560
        92.467972       48.104825      598.160175     1     0     0     0     2   1.560
       125.662122       34.119482      551.584864     2     0     0     0     3   1.960
       157.040595      135.721009      319.992715     1     4     0     0     5   1.558
       145.650785      135.369096      314.757699     1     1     0     0     8   1.558
       156.638985       98.644744      461.610207     1     1     0     0     5   1.558
         3.505812      108.553947     1100.435220     1     0     0     0     4   1.560
       186.262833       14.519255      264.598546     1     0     0     0     3   1.560
        96.282645       74.388337       83.097703     1     0     0     0     4   1.560
       155.060603      140.499459       92.065202     1     0     0     0     4   1.560
        25.740469       46.700360     1096.115151     1     0     0     0     3   1.560
       193.083232      195.461767      145.057702     1     0     0     0     7   1.560
        65.740332       44.194967      114.935204     1     1     0     0     1   1.558
       159.507302       90.196712      414.885201     1     1     0     0     8   1.558
       109.691285       99.254490      229.197701     1     0     0     0     1   1.560
       167.725414      195.862498      165.942696     1     1     0     0     4   1.558
        69.023818       64.508078      459.090188     1     0     0     0     7   1.560
        33.739589      123.080174      531.931466     2     1     0     0     5   1.963
       154.598969      178.499321      946.012673     1     1     0     0     8   1.558
       142.571071       27.891909       80.475198     1     0     0     0     4   1.560
        50.851309       15.851804      357.511322     1     3     0     0     6   1.558
        12.326396       82.462683      514.798959     2     0     0     0     4   1.960
       178.820758      142.570388      282.986781     4     1     0     0     4   2.474
       141.032778       55.207176      822.360207     1     1     0     0     3   1.558
       102.009372      145.247505      528.755227     1     0     0     0     2   1.560
        81.298760      196.787914      552.836261     2     0     0     0     2   1.960
       175.895975      126.547520        7.255200     1     0     0     0     2   1.560
        58.041420      136.705379      380.912698     1     2     0     0     8   1.558
        84.838460       98.291698      958.192727     1     4     0     0     1   1.558
        52.747637      112.840637      844.690224     1     0     0     0     6   1.560
       161.683001      113.988741      122.750199     1     0     0     0     3   1.560
       156.465288       70.062320      359.207148     1     0     0     0     4   1.560
        30.756235      180.490540       91.930199     1     0     0     0     7   1.560
       170.639674       72.824983      262.907693     1     0     0     0     8   1.560
       184.363147       43.638007      277.542702     1     0     0     0     2   1.560
         7.376536      172.395578      391.737710     1     0     0     0     4   1.560
        48.587553       21.340261      351.611031     1     0     0     0     8   1.560
       117.036357       21.339671      112.184154     1     1     0     0     1   1.558
       142.468988       96.364136      333.714351     1     2     0     0     8   1.558
       160.268375       13.344964      137.062707     1     0     0     0     1   1.560
       140.047203      142.253009      866.746031     1     0     0     0     3   1.560
        47.320590      106.999558      324.444872     1     4     0     0     5   1.558
        77.301919      111.583737      244.190194     1     0     0     0     5   1.560
        16.742339      195.831754      392.661446     2     0     0     0     4   1.960