ITEM: TIMESTEP
0
ITEM: NUMBER OF ATOMS
        1909
ITEM: BOX BOUNDS pp pp pp
  0.0000000E+00   200.000000000000     
  0.0000000E+00   200.000000000000     
  0.0000000E+00   5000.00000000000     
ITEM: ATOMS x y z f1 f2 f3 f4 orient radius
       138.218437      105.593050      198.870202     1     0     0     0     1   1.560
       126.426551      199.877305      472.910207     1     0     0     0     4   1.560
        54.173726       77.549447      564.730202     1     0     0     0     1   1.560
        21.763018      190.671710      423.356454     2     0     0     0     6   1.960
       108.974204      172.818625      403.208005     2     1     0     0     7   1.963
       168.222396       72.635393      165.415243     1     0     0     0     5   1.560
       184.698866       89.588066      405.052712     1     0     0     0     2   1.560
       133.245461      149.970469      560.960860     1     0     0     0     7   1.560
       109.754950      121.811940      316.952706     1     0     0     0     4   1.560
       125.465336      184.808807       16.765200     1     0     0     0     5   1.560
       128.667442      121.952761      543.857705     1     1     0     0     3   1.558
       151.691056       98.711178      117.706012     1     0     0     0     7   1.560
        74.140069       34.642094      585.655190     1     0     0     0     1   1.560
       119.824200       44.703339      586.250222     1     0     0     0     8   1.560
       103.148555      176.066904      229.710198     1     0     0     0     5   1.560
       154.581996       33.643361      391.025185     1     1     0     0     5   1.558
       176.003398       38.282662      746.095315     1     1     0     0     5   1.558
        53.819294      125.622284      325.187691     1     0     0     0     5   1.560
        72.464264      117.878012      190.105202     1     0     0     0     5   1.560
        83.052527      126.760551       66.437699     1     0     0     0     1   1.560
       167.315678       54.481501      397.617694     1     0     0     0     4   1.560
       146.977670      150.857951      468.370187     1     1     0     0     8   1.558
         2.107005       68.316314       41.823951     2     0     0     0     8   1.960
       191.074980       92.690212      125.539335     2     1     0     0     2   1.963
       130.693516       60.869502      653.932717     1     1     0     0     1   1.558
       171.194546      111.324879      158.107705     1     0     0     0     8   1.560
        76.167175       66.102597      253.012704     1     0     0     0     5   1.560
       188.810065      113.466129      594.035195     1     0     0     0     1   1.560
       145.596158      148.999965      892.882729     1     0     0     0     7   1.560
        99.143012      153.415944      261.267709     1     0     0     0     8   1.560
        65.655042      114.996834     1284.248208     1     6     0     0     4   1.558
       177.653790      118.460162     1083.312173     1     1     0     0     6   1.558
        16.309732        9.720838      665.132729     1     0     0     0     3   1.560
        63.224356       16.340767      558.917723     1     0     0     0     3   1.560
       174.011724      138.337916      112.131455     2     0     0     0     5   1.960
         1.599076       92.427368       26.583946     1     0     0     0     4   1.560
        95.557565       41.463103       17.927700     3     0     0     0     7   2.250
        25.877255      121.452262      484.877508     1     1     0     0     4   1.558
       197.032754       97.536036      765.975320     1     0     0     0     4   1.560
        31.498241       71.343724      809.887673     1     1     0     0     4   1.558
       166.982055      156.478424       88.350213     1     0     0     0     1   1.560
       198.695518       85.646363      430.127694     1     0     0     0     1   1.560
       159.068169       51.337198      242.725198     1     0     0     0     4   1.560
        13.710328      152.397937      594.082680     1     0     0     0     8   1.560
        31.891051       80.033369      465.075204     1     0     0     0     2   1.560
        11.353091      182.841377       86.424015     1     0     0     0     5   1.560
       131.541727      193.938372      757.801839     1     0     0     0     6   1.560
       112.997734      189.114439       92.122697     1     0     0     0     1   1.560
        41.317782       68.375902      389.562691     1     0     0     0     8   1.560
       147.317819      182.010374       40.997700     1     0     0     0     8   1.560
        41.464577        8.113990       77.922700     2     0     0     0     4   1.960
       168.601381      153.863691      265.902688     1     0     0     0     7   1.560
        35.586715       24.038202      574.677712     1     0     0     0     7   1.560
        45.870257       99.724445      148.932702     1     0     0     0     1   1.560
       191.118320       61.583693     1511.818154     1     6     0     0     6   1.558
        58.133898       14.801967      554.690224     1     1     0     0     1   1.558
        51.675816       70.113968      166.142693     1     0     0     0     4   1.560
         7.598911      157.818627      505.972695     1     0     0     0     8   1.560
       147.709021      157.136763      641.730202     1     0     0     0     1   1.560
       185.159388        9.810768      272.360207     1     0     0     0     1   1.560
       135.152703       27.074760       58.065202     1     0     0     0     1   1.560
        78.548330      102.274182      383.161100     1     0     0     0     8   1.560
       129.506504       32.507818      444.443463     1     0     0     0     3   1.560
        68.721949      198.931414      453.410195     1     0     0     0     7   1.560
       102.708960      183.772938      252.630196     1     0     0     0     7   1.560
       182.182722       80.473032      227.120202     1     0     0     0     6   1.560
       166.813499        4.553758      423.418686     1     1     0     0     3   1.558
        51.575775       26.498292      878.562722     1     2     0     0     6   1.558
        31.475118      189.943862      497.642709     1     0     0     0     2   1.560
       154.295412      164.796823      650.755227     1     0     0     0     5   1.560
       133.301261      185.872708       76.366865     1     0     0     0     1   1.560
       190.571626       95.641618      926.357705     1     0     0     0     3   1.560
        86.506679      101.278161      392.262704     1     0     0     0     1   1.560
       102.467059      199.184394      564.586872     1     0     0     0     7   1.560
       113.315119      122.356649      477.400185     1     1     0     0     6   1.558
        76.273181      123.404867      292.115212     1     0     0     0     5   1.560
       178.569878      132.382093       50.330201     1     0     0     0     7   1.560
         8.752380      162.029667      134.932999     1     0     0     0     8   1.560
       184.721429      171.415384      250.475198     1     1     0     0     1   1.558
       168.977805      120.379051      226.085198     1     0     0     0     6   1.560
        33.410197      103.726845      430.867715     1     1     0     0     6   1.558
        84.957600       25.116463      162.398699     1     0     0     0     4   1.560
       100.401420       96.437850      110.077698     1     1     0     0     3   1.558
       137.832722      120.067767      877.290200     1     0     0     0     8   1.560
       191.984873      169.126505      115.711672     2     1     0     0     8   1.963
        47.793422       35.378582      756.457680     1     0     0     0     1   1.560
       195.517655      146.160361      583.985207     2     0     0     0     5   1.960
       143.103670       28.315156     1010.142190     1     0     0     0     8   1.560
       131.884821      144.227860       89.182787     2     0     0     0     4   1.960
        39.710533       28.396348      641.443541     1     0     0     0     2   1.560
       148.778968      116.698145      402.861865     1     0     0     0     8   1.560
       155.738540      133.645817      407.765206     1     2     0     0     7   1.558
       164.530348      160.898666      731.446857     1     2     0     0     3   1.558
        44.495353      167.896108      781.220818     2     0     0     0     4   1.960
         4.507530        2.024782      785.422585     1     0     0     0     2   1.560
        18.019185       32.266640      609.285215     1     2     0     0     1   1.558
       166.190329      171.418508      146.495202     1     0     0     0     5   1.560
        17.734177       20.269199      738.102700     1     0     0     0     1   1.560
       192.788195       33.016608       55.720199     1     0     0     0     5   1.560
        50.312508       52.397739      312.132699     1     0     0     0     7   1.560
        14.718588       36.694783      259.555199     2     2     0     0     6   1.963
       102.327712      157.617376      210.575204     1     0     0     0     5   1.560
       192.330363      127.974727      727.117715     1     1     0     0     2   1.558
       179.075045      125.677768      578.303933     2     0     0     0     3   1.960
       106.547551      198.358297       26.242699     1     0     0     0     1   1.560
         5.255705       77.499266      487.197701     1     2     0     0     4   1.558
        24.275876       76.318989       10.017700     1     0     0     0     2   1.560
        54.049742       25.441066      933.372720     1     0     0     0     5   1.560
       103.043055       51.265662      491.705209     1     0     0     0     1   1.560
       159.617007      126.444572       99.322701     1     0     0     0     7   1.560
       164.775977      164.871196      125.865197     1     0     0     0     1   1.560
        92.354601      178.076357      311.180215     1     0     0     0     5   1.560
        38.580420      108.872670       93.582680     1     0     0     0     3   1.560
       136.079656       86.416100      551.417702     1     2     0     0     6   1.558
        60.683637       64.849000      446.582946     1     0     0     0     6   1.560
       153.837838       85.030393      215.642693     1     0     0     0     6   1.560
       145.398762       68.055410       19.963534     1     0     0     0     1   1.560
       146.074667      138.253234      509.816696     1     4     0     0     2   1.558
        11.962667      156.009937      124.442696     1     0     0     0     6   1.560
       134.222404      131.210934      138.609279     1     0     0     0     1   1.560
       126.986543      108.428209      224.816862     1     0     0     0     2   1.560
        51.223040      160.836663      435.021249     2     0     0     0     5   1.960
       193.397408       36.402357      237.563950     2     1     0     0     1   1.963
        11.578988      125.995963      288.133523     1     0     0     0     4   1.560
       110.125842      104.157924      981.315224     1     0     0     0     5   1.560
        60.102887       37.333411      650.175210     1     3     0     0     5   1.558
        35.372929       24.683554      854.067727     1     2     0     0     3   1.558
        50.523119      187.149596      804.769788     1     1     0     0     3   1.558
        40.222141       94.205742      256.530205     1     0     0     0     7   1.560
       107.211761      142.130250      870.197671     1     2     0     0     5   1.558
        59.411847       47.200269       25.722701     1     0     0     0     1   1.560
       116.560520       97.110644      393.347695     1     0     0     0     6   1.560
        84.497280       24.374553      430.840188     1     0     0     0     1   1.560
        55.153436       30.094410      175.165200     3     1     0     0     7   2.248
        28.535165       42.737094      130.962279     1     0     0     0     8   1.560
        32.548227       84.175327      119.669945     1     1     0     0     5   1.558
        93.376874        3.372620       14.446212     1     0     0     0     4   1.560
       163.037152      114.373002      209.118324     2     0     0     0     8   1.960
       154.019142      181.405417      445.480202     1     2     0     0     6   1.558
       173.258103      151.317173      552.857705     1     0     0     0     4   1.560
        80.705253      123.163142      213.241865     1     0     0     0     4   1.560
        95.755403       85.853612      370.317696     1     0     0     0     8   1.560
        32.881141      188.020804      139.422707     1     0     0     0     7   1.560
        59.302925      162.508005      676.600320     1     1     0     0     7   1.558
       158.454627       66.699714      356.420205     1     0     0     0     7   1.560
        43.638152       65.380217      430.692712     2     0     0     0     8   1.960
       180.542624      144.283443      876.937722     1     0     0     0     3   1.560
        99.074777       23.893761      383.705209     1     1     0     0     5   1.558
       105.228929       89.063596      177.436450     2     0     0     0     1   1.960
       111.160499      101.612316      370.912698     1     0     0     0     4   1.560
       111.743495      177.698785      132.267693     1     0     0     0     5   1.560
       166.769065       39.828916      112.867699     1     0     0     0     3   1.560
        57.114327       86.434286       83.382699     1     0     0     0     5   1.560
        60.843700      146.891997      794.595315     1     0     0     0     5   1.560
       171.616483       57.111778      544.875222     1     0     0     0     5   1.560
       116.032362       84.517085      269.222695     1     1     0     0     8   1.558
        61.325239      144.632139      573.305215     1     0     0     0     7   1.560
        82.193219       38.443661       72.732383     1     0     0     0     2   1.560
        79.302158      181.240032      235.980202     1     0     0     0     3   1.560
       152.274552      196.638252      680.029092     1     1     0     0     3   1.558
       188.937241       61.919059     1295.170205     1     6     0     0     7   1.558
       165.106256      133.796259      145.882699     1     1     0     0     7   1.558
        71.099515       45.236024      767.320229     1     0     0     0     6   1.560
       141.572403       25.934867      786.392678     1     1     0     0     6   1.558
       131.851302       23.083114      100.442696     1     1     0     0     7   1.558
        93.276030       33.072355      398.254256     1     0     0     0     2   1.560
        21.522496       51.890841      921.503557     1     0     0     0     4   1.560
       183.939391       62.090578      680.382272     2     0     0     0     5   1.960
       187.569578       38.084393      386.767709     1     0     0     0     7   1.560
        40.530495      144.452825      510.127365     1     0     0     0     6   1.560
        59.583157        3.022025      407.960213     1     1     0     0     1   1.558
        21.326834      126.231471      479.720193     1     0     0     0     1   1.560
        28.771342      116.390572      647.250222     1     0     0     0     2   1.560
       133.236060      186.441982      619.580178     1     0     0     0     4   1.560
       138.840372      123.225014      605.006656     2     0     0     0     8   1.960
       164.163880      139.684229     1375.017251     1     6     0     0     2   1.558
       134.365920      180.636751      484.220193     1     0     0     0     1   1.560
        11.282300      166.387394     1046.727212     1     0     0     0     7   1.560
        14.378506      184.373297      131.680199     1     0     0     0     1   1.560
       178.554067      195.105475     1485.858193     1     1     0     0     6   1.558
        84.045131        9.915221      712.181844     1     2     0     0     7   1.558
        87.167285      162.122121      258.664436     1     1     0     0     8   1.558
       158.000981       86.452648      484.142709     1     0     0     0     4   1.560
         0.154568       53.447268      333.992684     1     1     0     0     7   1.558
        86.773076      113.168606      260.442696     1     1     0     0     3   1.558
       118.193960       52.158845      376.295205     1     1     0     0     5   1.558
        45.804217       76.468698      439.645196     2     0     0     0     4   1.960
       113.352578      137.161199      369.262704     1     1     0     0     4   1.558
        77.993349       55.355757      459.005196     1     0     0     0     1   1.560
       197.094958       33.163594      375.925519     2     0     0     0     2   1.960
        22.387741       40.509000      392.010201     1     0     0     0     6   1.560
        57.625570      186.022680      319.817696     1     0     0     0     7   1.560
        97.364727      110.783173      508.965188     1     3     0     0     4   1.558
        53.475161       51.746148      190.625207     1     0     0     0     7   1.560
       106.884724      143.436475      390.145180     1     2     0     0     8   1.558
        32.618653       85.892206      581.792702     1     0     0     0     3   1.560
       166.997299       12.427547      166.733803     1     2     0     0     6   1.558
        95.728304      150.447020      421.869117     1     0     0     0     7   1.560
        27.651230       34.657085      612.745217     1     1     0     0     6   1.558
        48.908469       23.662074      563.585183     1     1     0     0     3   1.558
       111.514532       76.881519      285.525185     1     0     0     0     3   1.560
        55.089051       40.613322      557.141864     1     1     0     0     3   1.558
        38.190880       14.665798      234.529021     1     1     0     0     7   1.558
       151.833169       57.390963      162.605202     2     0     0     0     5   1.960
       146.679142       79.238371      447.060220     1     0     0     0     1   1.560
        63.129993      116.731697      866.704781     2     0     0     0     3   1.960
       134.042186      166.012799      949.041334     1     0     0     0     3   1.560
       120.600012      158.408486      613.990212     1     0     0     0     7   1.560
         8.104335       63.759904      253.382699     1     1     0     0     4   1.558
       149.620394      140.002450      186.357705     1     0     0     0     8   1.560
       122.591433      150.476714      290.462685     1     0     0     0     1   1.560
       114.462882      143.490245      148.782645     2     0     0     0     5   1.960
       120.496512      162.270987      331.640206     1     0     0     0     8   1.560
       121.159446      150.697337     1022.600198     1     0     0     0     3   1.560
       135.284112       52.138066      139.187707     1     0     0     0     1   1.560
       181.182711       40.880963      336.439549     2     0     0     0     6   1.960
        56.969771      118.610966      413.028954     2     0     0     0     6   1.960
       133.503914       74.465751       35.867918     1     1     0     0     8   1.558
        39.551730       79.361934      998.540200     1     2     0     0     8   1.558
        85.722639       41.687366      153.996493     1     3     0     0     5   1.558
        28.074004      157.211350      274.046029     1     0     0     0     4   1.560
        44.589011      164.420069      379.347705     1     2     0     0     7   1.558
        24.231019      141.394594      143.108539     1     0     0     0     8   1.560
        49.293988       42.564849      338.032703     3     1     0     0     8   2.248
        87.580003       34.556924      299.020211     1     0     0     0     2   1.560
       119.455357       79.721010      665.460378     2     0     0     0     3   1.960
        15.462667      156.601734      124.220200     1     0     0     0     5   1.560
       162.893205       84.960408      171.005196     1     0     0     0     6   1.560
        77.040605      166.343327       77.535203     1     1     0     0     7   1.558
       159.383712      121.683081     1029.187173     1     4     0     0     1   1.558
       184.074757       30.353662       62.740201     2     0     0     0     4   1.960
       146.251941       84.098362      714.327676     1     4     0     0     7   1.558
       182.056996       10.792760      208.117699     1     2     0     0     1   1.558
       172.347268       85.235380      432.550210     1     0     0     0     8   1.560
       154.148599      108.744547      111.490197     1     0     0     0     4   1.560
       168.168703       11.832956      331.957711     1     2     0     0     5   1.558
        54.466030       97.307302      113.202698     1     0     0     0     2   1.560
        98.660296       17.712530       41.152424     2     0     0     0     5   1.960
        38.225232       46.755259      391.809365     3     0     0     0     1   2.250
        64.226374      131.625652      457.727700     1     0     0     0     4   1.560
         0.188323       94.660246      635.847695     1     0     0     0     1   1.560
       125.742321       46.471915      924.717690     1     0     0     0     3   1.560
         9.271517       72.015387      143.355202     1     0     0     0     5   1.560
        87.156880      163.436109      305.530190     1     0     0     0     2   1.560
       165.150406        4.747339       42.432702     1     0     0     0     4   1.560
       103.779050      176.999989      693.975198     1     0     0     0     6   1.560
        72.422666       54.820353     1410.095254     1     6     0     0     8   1.558
        83.067752       78.433720      871.627724     1     1     0     0     8   1.558
         2.938718        2.696695      257.225198     1     0     0     0     4   1.560
        19.693112       28.582711      681.892678     1     1     0     0     3   1.558
       117.300267      196.957626      505.020196     2     0     0     0     5   1.960
        26.354837        8.121865      405.075204     1     0     0     0     8   1.560
        27.327619       66.980531      583.190224     1     0     0     0     1   1.560
       174.547454      177.068725      630.535317     1     2     0     0     8   1.558
        44.568240      198.954011      663.460183     1     0     0     0     2   1.560
       131.673972      164.263182      770.040200     1     0     0     0     4   1.560
       129.659870       14.958657      275.091809     1     0     0     0     7   1.560
       199.171366      117.662545      460.275185     1     0     0     0     5   1.560
        93.323045       63.061375      654.410195     1     0     0     0     3   1.560
       189.194133      170.550698      523.667702     1     1     0     0     7   1.558
       122.770063        1.737046      363.170205     2     0     0     0     2   1.960
       149.644539       97.597691      517.435220     1     0     0     0     1   1.560
        51.720565      179.444272      674.017678     1     0     0     0     1   1.560
       124.992053       83.501428      252.830193     1     0     0     0     6   1.560
       138.924378       62.852068      854.392678     1     1     0     0     7   1.558
       198.654844       42.675956      389.687691     1     0     0     0     3   1.560
       152.344549      163.525002      562.681979     1     0     0     0     3   1.560
       173.283858      132.752995      612.522683     1     1     0     0     3   1.558
        41.928174      149.103663      669.890176     1     0     0     0     6   1.560
        11.939207       27.582017      765.240212     1     0     0     0     6   1.560
        95.313348      101.755472      705.777688     1     1     0     0     5   1.558
        77.205920      148.830043      892.117715     1     0     0     0     7   1.560
       162.683361      118.265276      741.617715     1     1     0     0     4   1.558
        29.541675      186.603247       65.437677     1     0     0     0     7   1.560
        24.855701       36.183167      567.260201     2     0     0     0     3   1.960
        61.225814       17.101557      242.067696     1     0     0     0     8   1.560
        65.229006       76.314540      137.600198     1     0     0     0     6   1.560
        42.410433        9.740440      112.957703     1     0     0     0     5   1.560
       185.564678      119.611204      203.617699     1     0     0     0     6   1.560
       117.361132      104.431696      197.935975     1     1     0     0     6   1.558
       132.385939       96.691793      425.222695     1     0     0     0     8   1.560
        66.564922      116.752750      367.435189     1     0     0     0     7   1.560
       155.484125       10.815188      612.991433     2     0     0     0     5   1.960
        53.451572      123.914313     1064.008218     1     2     0     0     3   1.558
       123.432533      150.007242      183.141824     2     2     0     0     5   1.963
       116.504092      167.246715      553.602700     1     0     0     0     3   1.560
       140.619704        7.152644      935.292797     1     0     0     0     4   1.560
        90.017415       60.858374      698.986064     1     1     0     0     6   1.558
       158.421507       15.295506       78.165200     1     0     0     0     8   1.560
        61.997210      146.849364     1114.733193     1     0     0     0     1   1.560
        87.007996      122.200602      207.408256     1     2     0     0     8   1.558
       145.835597       83.394308       79.917702     1     0     0     0     7   1.560
        40.599119       28.208194      717.905190     1     0     0     0     5   1.560
        52.003172      139.934068       24.620200     1     0     0     0     5   1.560
       175.030762       44.356195      657.397683     1     2     0     0     1   1.558
         6.884252      176.927597      681.765176     1     1     0     0     4   1.558
        71.612637      157.115330      737.932717     1     1     0     0     3   1.558
       118.759401       42.872381      110.452698     1     0     0     0     2   1.560
       135.689037        9.083762      551.107705     1     0     0     0     3   1.560
       120.623013      163.281539     1034.428221     1     0     0     0     5   1.560
       189.972505       19.397622      132.428942     2     0     0     0     6   1.960
       106.424390      174.972865      353.667702     1     0     0     0     7   1.560
        96.282645       74.388337       83.097703     1     0     0     0     4   1.560
        96.552464       42.643344      587.730202     1     0     0     0     8   1.560
        23.636180       79.825947      384.910195     1     0     0     0     2   1.560
        69.479231        7.590065      288.017709     2     0     0     0     5   1.960
       108.621692       26.545051      475.427712     1     1     0     0     8   1.558
       132.919770      188.875346      418.392709     1     0     0     0     5   1.560
        55.326712       96.948060      544.827860     2     3     0     0     2   1.963
       167.725414      195.862498      165.942696     1     1     0     0     4   1.558
        45.668448      118.548645      414.001767     1     4     0     0     8   1.558
         6.765786       45.560926      634.632729     1     0     0     0     2   1.560
        44.406054      155.202832      983.092690     1     0     0     0     4   1.560
        43.145501       54.085402       88.952710     2     0     0     0     1   1.960
       187.493916       60.806827      733.155190     1     2     0     0     6   1.558
        98.045166       25.443757      948.851866     1     0     0     0     1   1.560
       178.406692      120.220901      152.387704     1     0     0     0     7   1.560
        50.548330       16.022055      358.025196     3     3     0     0     8   2.248
         6.599318       34.748669      349.015235     1     0     0     0     4   1.560
        19.684050        9.306068      676.875222     1     0     0     0     4   1.560
       147.031647      178.410714      765.371845     1     0     0     0     3   1.560
       123.202039       98.293461      119.690198     2     0     0     0     8   1.960
       140.272191       43.503726      156.772698     1     0     0     0     3   1.560
       186.075646       24.066935      983.957680     1     0     0     0     2   1.560
        61.848042      114.568556      245.875207     1     0     0     0     6   1.560
        24.542896       69.754716      631.161095     1     0     0     0     3   1.560
        92.201122       14.831034      444.152688     1     0     0     0     8   1.560
        46.957219       82.113469      508.512704     1     0     0     0     5   1.560
       118.941698       40.124312      857.917702     1     2     0     0     6   1.558
        51.075544      160.892518      373.347695     1     0     0     0     3   1.560
        39.097275        4.819083      275.952706     1     0     0     0     7   1.560
        27.268191       73.534776      110.115197     1     1     0     0     1   1.558
       158.276396       51.979645      744.470193     1     0     0     0     3   1.560
       145.690069       84.256534      642.245217     1     0     0     0     3   1.560
       175.006435      199.182218      738.312761     1     2     0     0     5   1.558
        59.500331      110.101548      429.885201     1     1     0     0     6   1.558
        53.790894      114.509777      502.075204     1     0     0     0     4   1.560
        62.207528       67.537839      244.262704     1     2     0     0     8   1.558