ITEM: TIMESTEP
0
ITEM: NUMBER OF ATOMS
         460
ITEM: BOX BOUNDS pp pp pp
  0.0000000E+00   200.000000000000     
  0.0000000E+00   200.000000000000     
  0.0000000E+00   5000.00000000000     
ITEM: ATOMS x y z f1 f2 f3 f4 orient radius
       128.565934      153.657485      204.515206     1     0     0     0     5   1.560
        81.608274      164.404698      701.627724     1     0     0     0     8   1.560
        31.603748      152.012359      554.347714     1     0     0     0     4   1.560
        94.953230       24.730104      132.350198     1     0     0     0     6   1.560
        63.529224       20.846921      598.410195     1     0     0     0     4   1.560
        86.970580      166.390050      235.027703     1     0     0     0     7   1.560
        93.425101       74.282743      475.466439     2     0     0     0     6   1.960
       179.375761      101.820035      369.606240     2     0     0     0     4   1.960
        62.267246       31.175367      578.032693     1     0     0     0     4   1.560
       161.325311       44.014642      106.670201     2     0     0     0     4   1.960
       131.430899        0.575212      551.697671     1     0     0     0     6   1.560
       192.524448      193.156939      226.448952     2     1     0     0     2   1.963
        52.192996      111.601123      426.220193     1     0     0     0     4   1.560
        68.334599       70.106162      185.563108     1     0     0     0     4   1.560
       133.332311      183.503733      567.342506     2     0     0     0     5   1.960
       139.104997       51.851439      737.267678     1     0     0     0     3   1.560
       174.590102       94.344275      141.037698     1     0     0     0     5   1.560
       151.440324      191.038746      642.117715     1     0     0     0     8   1.560
        61.990272      149.307383      130.911032     1     0     0     0     6   1.560
        54.565100       84.449910      726.791929     1     0     0     0     4   1.560
        22.966079      133.688269      245.867699     1     0     0     0     1   1.560
        70.627031       42.481663      328.860207     1     0     0     0     7   1.560
        68.495940       25.725410      556.782693     1     0     0     0     1   1.560
        77.833493       20.269302      365.925210     1     0     0     0     6   1.560
       119.388186      185.670762      269.082711     1     0     0     0     1   1.560
        33.052127       75.386583      110.365197     1     0     0     0     1   1.560
        27.268191       73.534776      110.115197     1     0     0     0     6   1.560
       111.161336        4.509086      298.845193     1     0     0     0     2   1.560
       135.270907       95.094493      381.392079     2     0     0     0     7   1.960
       120.189342      154.449807      172.892693     1     0     0     0     8   1.560
        85.463559        3.971358      380.935822     4     0     0     0     5   2.470
       189.083505       40.018379      259.732705     1     0     0     0     8   1.560
       134.819330      164.772637      247.550195     1     0     0     0     3   1.560
       155.499385      139.224951      940.252724     1     0     0     0     2   1.560
        29.702013       29.824213      542.770180     1     0     0     0     1   1.560
       188.543252       85.590994      756.350198     2     0     0     0     3   1.960
        52.173006      132.250996      576.220193     1     0     0     0     7   1.560
       101.819914      132.641426      504.395211     1     0     0     0     6   1.560
        13.723735      110.612324      311.765209     2     0     0     0     6   1.960
       181.742052       45.564203      676.732705     1     0     0     0     7   1.560
       116.343391       20.621318      111.150201     1     0     0     0     4   1.560
        69.587317       51.999938      423.242715     1     0     0     0     7   1.560
        55.564306      170.985369       82.620202     1     1     0     0     4   1.558
       152.982636       90.674520      229.197701     1     0     0     0     8   1.560
       146.750981       26.232645      298.225198     1     0     0     0     2   1.560
        58.377248       38.989971      511.612710     1     0     0     0     8   1.560
        99.897724       50.376391      599.690224     1     0     0     0     7   1.560
        71.892487      147.107760      237.762704     1     0     0     0     1   1.560
        90.309624       55.210389      234.332696     1     0     0     0     4   1.560
       112.821587       35.072450      228.537698     2     0     0     0     8   1.960
        34.879293        2.391156      709.358498     3     0     0     0     5   2.250
       147.878050      141.719277       83.767701     1     0     0     0     1   1.560
        80.618040      141.983315       83.847703     1     0     0     0     2   1.560
       161.682005      117.619302       91.822701     1     0     0     0     5   1.560
        47.481622       86.296075      530.672707     1     0     0     0     1   1.560
       172.604925      101.028250      716.112588     1     0     0     0     2   1.560
       122.965051      118.772494      423.100198     1     0     0     0     4   1.560
        29.196984      103.804476      512.362710     1     0     0     0     1   1.560
       142.531385      147.774805      388.326028     1     0     0     0     4   1.560
        50.576989      171.668368      389.377694     1     0     0     0     5   1.560
        20.701119       11.586850      615.935220     1     2     0     0     8   1.558
       195.700703      136.853633      204.975516     1     0     0     0     8   1.560
       120.489068       76.905149      334.645211     1     1     0     0     3   1.558
        19.058969      176.976729      736.722695     1     0     0     0     7   1.560
        29.798943      193.842158      642.647683     1     0     0     0     5   1.560
       178.637048       56.168490      172.980202     1     1     0     0     1   1.558
       192.722022      115.569043      831.552712     1     0     0     0     4   1.560
        84.174533      181.992999      695.827676     1     1     0     0     1   1.558
       179.897392       37.453841      195.450204     1     0     0     0     1   1.560
        98.347202      101.381391      108.811005     1     0     0     0     3   1.560
        24.994017       98.468835     1105.565224     1     0     0     0     4   1.560
        91.678025       80.057344      351.106438     2     0     0     0     4   1.960
       124.429833       59.617130      158.272698     1     0     0     0     8   1.560
       145.592807       70.871864      247.501036     1     0     0     0     2   1.560
        42.115873        5.731744      238.706033     1     0     0     0     2   1.560
       167.415270       39.832730      163.390177     1     0     0     0     3   1.560
        78.554966       75.286020      583.791924     1     0     0     0     5   1.560
       125.846650      180.794637      434.895211     1     0     0     0     6   1.560
       185.049824       61.962833      744.547585     1     0     0     0     1   1.560
        53.312531       87.551729      173.230202     1     0     0     0     2   1.560
       127.048493      134.479708      190.745202     1     0     0     0     7   1.560
        14.960480       84.739718      301.810189     1     0     0     0     6   1.560
       100.401420       96.437850      110.077698     1     1     0     0     3   1.558
        20.961620       50.457331      558.650185     1     0     0     0     3   1.560
        90.299325       24.157707      148.545205     1     0     0     0     6   1.560
       101.235669      135.024671      132.364067     1     0     0     0     6   1.560
       108.016956       31.562964      129.737702     1     0     0     0     7   1.560
        93.241317      146.400562      243.983610     1     0     0     0     5   1.560
       184.312322       98.964802      305.723946     2     0     0     0     4   1.960
         5.486825      103.232905      439.945199     1     0     0     0     3   1.560
       175.452250      141.096670      374.011090     1     0     0     0     8   1.560
        33.961291      167.399155      612.285195     1     0     0     0     7   1.560
        15.354187       20.831560      321.947701     1     0     0     0     5   1.560
       151.046938       14.908414      298.176525     2     0     0     0     6   1.960
        73.319435       72.707907      113.777703     1     0     0     0     1   1.560
        97.182649      135.061344      448.212685     1     1     0     0     1   1.558
        14.318307      151.458212      231.250207     1     0     0     0     4   1.560
        92.492015      173.049682      291.715188     1     0     0     0     2   1.560
       175.138001       52.397392       21.957700     1     0     0     0     7   1.560
       153.102571      140.105289       21.705201     1     0     0     0     1   1.560
       190.764683      160.411586      858.442727     1     0     0     0     1   1.560
        11.687464       32.351806      526.567727     1     0     0     0     3   1.560
       174.039043        0.128577      401.504315     1     1     0     0     1   1.558
        44.334324       29.202918      254.407693     1     0     0     0     6   1.560
        50.431434       68.534136      133.425195     1     0     0     0     4   1.560
       150.619288      152.581052      114.560197     1     0     0     0     5   1.560
       146.251941       84.098362      714.327676     1     0     0     0     7   1.560
       192.087306       14.673215       50.240201     1     0     0     0     3   1.560
       121.823390      170.413083      200.565194     1     0     0     0     8   1.560
       120.587306      165.901120      200.797707     1     0     0     0     2   1.560
        37.203273       40.677243      201.670205     1     0     0     0     4   1.560
       160.835353      117.149167       70.590203     1     0     0     0     8   1.560
       111.594882      181.026104      531.855202     1     0     0     0     7   1.560
       149.194138      101.079670      486.961027     1     0     0     0     8   1.560
       175.869246        8.214113      529.682717     1     0     0     0     6   1.560
        35.273124      186.815677      167.387704     1     0     0     0     7   1.560
       112.094515      186.929450      289.232695     2     1     0     0     8   1.963
       163.485310      151.989067      173.150201     1     0     0     0     6   1.560
       106.509699      120.512018      465.232705     1     0     0     0     2   1.560
         0.249251      104.446046      534.370217     1     0     0     0     4   1.560
        59.669169       52.032102      374.107705     1     0     0     0     8   1.560
        54.051517       73.666337      810.947671     1     1     0     0     3   1.558
        13.896960       89.389067      195.287698     1     0     0     0     8   1.560
       168.972888      197.411100      328.603951     2     0     0     0     4   1.960
        74.956637      130.326687      411.152688     2     0     0     0     8   1.960
        95.901241       78.196453      686.265206     2     0     0     0     7   1.960
        43.986856      160.121516      851.668923     2     0     0     0     5   1.960
        62.988193       77.323458      605.962685     1     0     0     0     5   1.560
       189.806646       97.502225      367.032674     1     0     0     0     1   1.560
        51.398051       95.788427      100.795221     1     0     0     0     8   1.560
        70.177965      192.772211      625.080178     1     0     0     0     5   1.560
       198.150097       10.853001      372.537698     1     0     0     0     4   1.560
       170.378939      136.607709      365.232705     1     0     0     0     6   1.560
        11.900521      117.462180      444.002694     1     0     0     0     7   1.560
        88.905190      103.404958      650.830178     1     0     0     0     2   1.560
       101.437870        5.106372      458.787698     1     0     0     0     3   1.560
        93.376874        3.372620       14.446212     1     0     0     0     4   1.560
        79.943759       46.624485     1429.557168     1     1     0     0     4   1.558
        85.608000       48.933418      536.402688     1     1     0     0     2   1.558
        38.598606       35.076983     1034.850259     1     1     0     0     3   1.558
       189.756243       23.109140      326.357705     1     0     0     0     7   1.560
       141.540682       81.298794      328.817696     1     0     0     0     6   1.560
       122.295454        5.685365      543.430215     1     0     0     0     3   1.560
       119.463779       74.273888      684.506448     2     0     0     0     2   1.960
        38.647310      165.250988      316.170205     2     0     0     0     4   1.960
       104.198845       92.827428      649.965208     3     0     0     0     7   2.250
         1.129985       73.171185      569.412698     1     0     0     0     7   1.560
       174.963441       85.596973      483.367715     1     1     0     0     7   1.558
        88.103368       81.607559      192.630196     1     0     0     0     7   1.560
        84.836488      101.873928      423.515177     1     0     0     0     7   1.560
       170.138423       34.003236      647.051044     1     0     0     0     8   1.560
        96.281070      141.177330      465.396025     1     0     0     0     8   1.560
        57.114327       86.434286       83.382699     1     0     0     0     5   1.560
       162.113615       79.931400      607.641885     1     0     0     0     2   1.560
       194.772375       49.848695      395.813958     2     0     0     0     7   1.960
       142.516816      156.466808      888.400185     1     0     0     0     3   1.560
        46.349059      196.196748      232.070199     1     1     0     0     8   1.558
       131.252580      161.138566      336.780190     1     0     0     0     6   1.560
        91.303339      155.680596      218.260201     1     0     0     0     5   1.560
        85.296263       51.628697      429.417702     1     0     0     0     2   1.560
        93.370883      171.814068      696.715188     1     0     0     0     4   1.560
       192.334764      118.667195      639.417580     1     0     0     0     7   1.560
        60.604997      160.147459      725.067727     1     0     0     0     2   1.560
       179.046095       32.777260      820.905190     1     0     0     0     4   1.560
       113.930981       56.609810      244.316099     1     1     0     0     2   1.558
       101.428020       76.940105      286.652688     1     0     0     0     2   1.560
        86.916653      161.537749      259.080658     2     0     0     0     4   1.960
        52.980452      177.465975     1018.972374     1     0     0     0     3   1.560
       199.810280      174.087266      183.956698     2     0     0     0     4   1.960
        53.314835      130.893865     1068.398007     1     1     0     0     1   1.558
       170.296608       61.839245      651.947671     1     0     0     0     4   1.560
       194.126987       83.066021      563.612710     1     0     0     0     5   1.560
        70.063337      151.062987      298.072701     1     0     0     0     6   1.560
        61.039350      155.980955      310.308938     2     0     0     0     6   1.960
       114.429195      116.830486      680.655190     1     1     0     0     6   1.558
       145.428856      137.965622      558.475198     1     0     0     0     1   1.560
       180.935312      101.265739      180.542702     1     0     0     0     6   1.560
       137.476941      134.947296      189.888509     1     1     0     0     2   1.558
       182.539128      181.270588      322.232705     1     0     0     0     1   1.560
        28.036918        2.723302      124.105202     1     0     0     0     8   1.560
        62.898802       36.951728      566.100198     1     0     0     0     5   1.560
       149.120822      161.281601      253.742694     1     0     0     0     3   1.560
        10.642566       28.124961      377.821239     2     0     0     0     3   1.960
       126.084572      174.183239      293.847695     1     0     0     0     2   1.560
       186.833971       48.728266      675.985207     1     0     0     0     4   1.560
       125.359766       58.430510      683.930215     1     0     0     0     7   1.560
       144.560345      111.948350       76.282700     1     0     0     0     6   1.560
       157.300335       78.654404      197.273949     2     0     0     0     2   1.960
        90.057184      127.493162      471.720193     1     0     0     0     2   1.560
       114.857666      164.283668      173.666868     1     0     0     0     4   1.560
         3.649225      184.569212      319.155190     1     0     0     0     3   1.560
       108.047836      189.106003      389.712685     1     0     0     0     6   1.560
       166.423177      181.941680      404.295205     1     3     0     0     3   1.558
       113.848334       69.111651       33.181891     1     0     0     0     8   1.560
       114.159693       83.634612      335.407693     1     0     0     0     1   1.560
       117.084713      157.534222      483.370187     1     0     0     0     3   1.560
        25.267396       97.488940      732.125222     1     1     0     0     6   1.558
       155.046908       57.451703      383.297707     1     0     0     0     3   1.560
        27.834740        9.198198      259.120202     1     0     0     0     5   1.560
        40.722933      139.623700      341.472695     1     1     0     0     3   1.558
       142.951253      171.165679      448.402688     1     2     0     0     3   1.558
        53.451572      123.914313     1064.008218     1     0     0     0     8   1.560
        93.971341       72.160313      430.172707     3     0     0     0     2   2.250
       112.083643       92.285247      346.126870     1     0     0     0     3   1.560
        16.595319       86.822996      732.805215     1     1     0     0     2   1.558
        62.207528       67.537839      244.262704     1     0     0     0     6   1.560
        89.050453       71.658118      737.792580     1     0     0     0     4   1.560
       101.565619       95.185666      172.155205     1     0     0     0     2   1.560
        39.028061      174.795381      256.065194     1     0     0     0     8   1.560
        85.489297       99.953054      651.952676     1     0     0     0     8   1.560
        86.576849      178.188284      531.642678     1     0     0     0     2   1.560
       113.048869      106.754060      695.085183     1     0     0     0     6   1.560
        81.020175      172.295504      765.772683     1     0     0     0     6   1.560
        91.541211      112.957422      313.197701     1     0     0     0     6   1.560
        84.405225      116.925439      309.322701     1     0     0     0     3   1.560
       105.067747      159.121624      422.000191     1     0     0     0     1   1.560
       154.109508       39.765847      120.872697     1     0     0     0     5   1.560
        86.465465       14.561868      120.592698     1     0     0     0     2   1.560
        96.657360      153.645852      187.685204     1     0     0     0     3   1.560
        77.435219       83.929006      653.046456     2     0     0     0     3   1.960
        99.866161      188.269017      714.945229     1     0     0     0     3   1.560
        13.272266       54.894691       49.895200     1     0     0     0     8   1.560
       102.372996      114.812655       64.245176     1     0     0     0     3   1.560
       159.980118      187.638399       44.970250     1     0     0     0     4   1.560
        31.451778      124.993978      703.320229     1     0     0     0     1   1.560
        27.202101       16.433266      885.197671     1     0     0     0     4   1.560
       130.054192       24.890460      830.074359     1     0     0     0     4   1.560
        55.287328      180.099502      664.070229     1     1     0     0     4   1.558
       187.828166      134.548137      327.382699     1     0     0     0     6   1.560
         7.598834       90.145638      129.797727     1     0     0     0     4   1.560
        10.736054       53.530253      262.440395     2     0     0     0     3   1.960
        25.247714       85.292453     1211.995156     1     2     0     0     6   1.558
        59.635738       85.557943      728.312722     1     0     0     0     3   1.560
       123.374634      101.293498      321.710193     1     0     0     0     4   1.560
       172.641228      157.223464      536.805572     1     0     0     0     8   1.560
       133.262224        0.951221      158.462701     1     1     0     0     7   1.558
       178.392002       42.135683      744.997720     1     0     0     0     3   1.560
       167.238273       19.935887      218.422707     1     0     0     0     3   1.560
        39.484997       35.896973      982.777688     1     1     0     0     5   1.558
       175.888632      150.511212      709.457740     1     2     0     0     8   1.558
        49.834629        7.956477      874.355202     1     1     0     0     7   1.558
       136.048315      163.037574      267.925124     1     0     0     0     1   1.560
       196.589725       54.386279      310.895211     1     0     0     0     2   1.560
       146.841275       25.060288      409.862710     1     0     0     0     6   1.560
         9.754464      168.238838      118.867699     1     1     0     0     4   1.558
       103.637297        6.934888      565.370217     1     0     0     0     2   1.560
       104.897082      166.818757      482.710211     2     1     0     0     7   1.963
       188.617866       57.208275      315.787047     1     0     0     0     6   1.560
        32.367780      198.227619      323.470095     1     0     0     0     4   1.560
        37.207216      198.048817      320.095193     1     0     0     0     1   1.560
        75.173581      103.441421      246.905205     1     0     0     0     4   1.560
        84.217526        3.677383      384.910195     1     0     0     0     1   1.560
        63.074499       89.667442      713.315184     1     1     0     0     6   1.558
        45.657811       42.694169      671.967690     1     4     0     0     6   1.558
        21.497033       21.448397      336.875191     1     1     0     0     8   1.558
         6.383292       62.008362      258.046005     1     1     0     0     7   1.558
       126.778587       55.846269      156.672707     1     0     0     0     3   1.560
        32.695410       64.844390      366.652688     1     1     0     0     3   1.558
       187.860992       97.172489      354.922515     3     0     0     0     1   2.250
        11.941996       97.639203      842.020180     1     0     0     0     5   1.560
       107.305330       82.761059      206.217705     1     0     0     0     4   1.560
       117.669344      174.204907      246.925195     1     0     0     0     4   1.560
        32.169997       24.373996      111.203535     1     0     0     0     4   1.560
        71.507804       11.792808      418.830700     3     0     0     0     2   2.250
        77.648453      178.444749       42.657700     1     0     0     0     5   1.560
       133.573992      131.393796      139.041451     2     0     0     0     3   1.960
        64.936053      121.271848      350.050210     1     0     0     0     4   1.560
       116.971942       80.275876      267.340188     1     0     0     0     4   1.560
        14.075448       37.417716      259.710213     1     1     0     0     5   1.558
       102.904659      189.938274      485.410195     1     0     0     0     8   1.560
       182.992672       75.882122      659.827676     1     0     0     0     8   1.560
        77.281969      169.596186      643.912698     1     0     0     0     7   1.560
        11.767587      163.458320      161.550195     1     0     0     0     3   1.560
       142.327402       65.818428      108.122697     1     0     0     0     7   1.560
       185.883785       50.065877      736.577676     1     0     0     0     1   1.560
        97.510229      131.895342      134.668954     2     1     0     0     5   1.963
        91.598033      108.888164      260.951694     2     0     0     0     2   1.960
        12.128085      145.499483      807.740212     1     1     0     0     8   1.558
        84.345096       85.289112      507.012704     1     2     0     0     6   1.558
       117.585023      104.361562      197.474572     2     1     0     0     4   1.963
       113.577208       75.798329       51.379090     1     0     0     0     7   1.560
        58.428730      134.493831       12.630200     1     0     0     0     1   1.560
        62.606384      131.472675      873.812722     1     0     0     0     1   1.560
        64.926208       67.176533      452.817696     1     0     0     0     8   1.560
         2.614318      156.828632      590.350198     1     0     0     0     5   1.560
       143.729298       51.505840       51.722699     1     0     0     0     5   1.560
         2.179918       51.597984      332.212685     1     0     0     0     7   1.560
        84.705683      177.866438      265.011854     1     0     0     0     5   1.560
       154.818214      177.532911      802.647683     1     5     0     0     8   1.558
        12.971351       79.982134      163.987695     1     0     0     0     2   1.560
       152.976388      196.882285      412.612695     2     1     0     0     3   1.963
       157.327396       10.554399      674.880227     1     3     0     0     3   1.558
         2.006662      117.013154      474.977700     1     0     0     0     8   1.560
        40.022752      131.639119      588.467690     1     0     0     0     6   1.560
       117.912239      172.684401      384.672707     1     0     0     0     1   1.560
       161.028725      163.426759      454.692696     1     0     0     0     8   1.560
        60.811439      189.774248      684.102578     1     1     0     0     8   1.558
        12.315178       71.827080      566.782693     1     0     0     0     1   1.560
        74.283196       62.439019      610.352700     1     0     0     0     3   1.560
        39.059880      195.255843       19.404460     1     0     0     0     2   1.560
       131.969781      199.409688      903.757729     1     0     0     0     2   1.560
       162.390090      164.574451      333.765304     1     0     0     0     2   1.560
         3.888096      151.139833      780.382729     1     1     0     0     6   1.558
        98.117278       15.522900       18.232700     1     0     0     0     5   1.560
       168.241301      110.578930      460.832711     1     0     0     0     3   1.560
        83.861294      190.328232      460.285195     1     1     0     0     4   1.558
        98.383700      119.414854      243.950204     1     0     0     0     1   1.560
       175.198429      134.897219      768.717690     1     2     0     0     6   1.558
       138.063391       97.427916      212.325204     1     0     0     0     6   1.560
        65.039343      163.675963       25.480201     1     0     0     0     5   1.560
       181.674144        8.260960      807.047707     1     0     0     0     7   1.560
         5.444769      198.767708      395.082949     3     0     0     0     3   2.250
        11.024773       20.893245      376.735207     1     0     0     0     1   1.560
       181.328647       48.478671      155.520196     1     0     0     0     6   1.560
       170.112078       64.531858      135.512704     1     1     0     0     3   1.558
        84.295646      170.138322       45.631368     1     0     0     0     2   1.560
       132.139590       52.589990      533.417765     1     1     0     0     5   1.558
        10.513558      105.874099      438.984363     3     0     0     0     3   2.250
       162.674377      129.060566      595.470193     1     1     0     0     4   1.558
       143.750083      158.870413      226.512696     2     0     0     0     2   1.960
        55.291139       71.616987      276.866448     2     0     0     0     2   1.960
        51.587844      160.064444      187.422707     1     0     0     0     5   1.560
        29.862542      146.052481      160.665205     1     0     0     0     6   1.560
       134.819313       34.827902      226.647698     1     0     0     0     2   1.560
        99.293262       51.623045      645.605202     1     3     0     0     8   1.558
       154.123775       81.289876      181.470193     1     0     0     0     1   1.560
        65.318107       69.718601      343.746875     1     0     0     0     3   1.560
       104.750236      139.051975      200.102700     1     0     0     0     6   1.560
       107.565136       19.851617      247.891448     2     0     0     0     8   1.960
       167.583896       34.067811      758.172707     1     1     0     0     7   1.558
        39.645848      119.650101      920.875222     1     1     0     0     2   1.558
        50.373248       84.662323      219.089369     1     0     0     0     8   1.560
         2.682159      121.995987      141.316453     2     0     0     0     7   1.960
       172.672150       78.609940      260.060189     1     0     0     0     7   1.560
       196.379448       60.500229      372.786863     3     0     0     0     3   2.250
       182.603671      122.210752       98.647698     1     1     0     0     7   1.558
       167.854989       77.152754      614.632729     1     0     0     0     4   1.560
         5.700936      174.966719      489.227700     2     0     0     0     7   1.960