ITEM: TIMESTEP
0
ITEM: NUMBER OF ATOMS
         632
ITEM: BOX BOUNDS pp pp pp
  0.0000000E+00   1000.00000000000     
  0.0000000E+00   100.000000000000     
  0.0000000E+00   100.000000000000     
ITEM: ATOMS x y z f1 f2 f3 f4 orient radius rate_mig rate_rot rate_emit
       849.938403       53.249246       98.855476     1     0     0     0     1   1.560 0.000E+00 0.000E+00 0.000E+00
       676.410898       29.695001        8.924351     1     0     0     0     1   1.560 0.000E+00 0.000E+00 0.000E+00
       821.372419       42.850872       86.940272     1     0     0     0     1   1.560 0.000E+00 0.000E+00 0.000E+00
       734.027634       24.234074       39.906146     1     0     0     0     1   1.560 0.000E+00 0.000E+00 0.000E+00
        85.746016       10.821143       78.744863     1     0     0     0     1   1.560 0.000E+00 0.000E+00 0.000E+00
        78.899756       79.411141       91.415628     1     0     0     0     1   1.560 0.000E+00 0.000E+00 0.000E+00
       129.815968       66.896133       68.477539     1     0     0     0     1   1.560 0.000E+00 0.000E+00 0.000E+00
       429.867520       54.870036       60.683754     1     0     0     0     1   1.560 0.000E+00 0.000E+00 0.000E+00
       120.489721       16.559586       26.661095     1     0     0     0     1   1.560 0.000E+00 0.000E+00 0.000E+00
       549.772165       22.221512       78.288704     1     0     0     0     1   1.560 0.000E+00 0.000E+00 0.000E+00
       957.576893       79.494325       94.946091     1     0     0     0     1   1.560 0.000E+00 0.000E+00 0.000E+00
       157.459414       30.564502       64.847853     1     0     0     0     1   1.560 0.000E+00 0.000E+00 0.000E+00
       442.939865       87.616863       82.262385     1     0     0     0     1   1.560 0.000E+00 0.000E+00 0.000E+00
       425.701159       41.803769       19.294179     1     0     0     0     1   1.560 0.000E+00 0.000E+00 0.000E+00
       518.678780       52.389402       38.208936     1     0     0     0     1   1.560 0.000E+00 0.000E+00 0.000E+00
       416.746596       55.622260       74.336463     1     0     0     0     1   1.560 0.000E+00 0.000E+00 0.000E+00
       801.826525       44.629144       77.505126     1     0     0     0     1   1.560 0.000E+00 0.000E+00 0.000E+00
       312.057371        2.990145       96.956147     1     0     0     0     1   1.560 0.000E+00 0.000E+00 0.000E+00
        34.588781       34.091167       87.150289     1     0     0     0     1   1.560 0.000E+00 0.000E+00 0.000E+00
       375.528589       56.378573       24.931128     1     0     0     0     1   1.560 0.000E+00 0.000E+00 0.000E+00
       766.220789       31.072122       84.094718     1     0     0     0     1   1.560 0.000E+00 0.000E+00 0.000E+00
       763.083245       14.976363       24.000268     1     0     0     0     1   1.560 0.000E+00 0.000E+00 0.000E+00
       109.489965       34.309282       82.153664     1     0     0     0     1   1.560 0.000E+00 0.000E+00 0.000E+00
       722.685502       16.262550       71.327194     1     0     0     0     1   1.560 0.000E+00 0.000E+00 0.000E+00
       891.932951        5.562446       62.085300     1     0     0     0     1   1.560 0.000E+00 0.000E+00 0.000E+00
       801.987440       87.514770       64.810062     1     0     0     0     1   1.560 0.000E+00 0.000E+00 0.000E+00
       295.162404        4.883321       58.884782     1     0     0     0     1   1.560 0.000E+00 0.000E+00 0.000E+00
       772.589812       71.041212        5.982310     1     0     0     0     1   1.560 0.000E+00 0.000E+00 0.000E+00
       220.147390       73.448332       36.569340     1     0     0     0     1   1.560 0.000E+00 0.000E+00 0.000E+00
       516.051188       74.453611       21.035593     1     0     0     0     1   1.560 0.000E+00 0.000E+00 0.000E+00
       634.880018        6.956169       88.143204     1     0     0     0     1   1.560 0.000E+00 0.000E+00 0.000E+00
       553.744003       53.755658        8.900311     1     0     0     0     1   1.560 0.000E+00 0.000E+00 0.000E+00
       391.751388       20.627666       70.244800     1     0     0     0     1   1.560 0.000E+00 0.000E+00 0.000E+00
       998.669626       99.583854       27.082942     1     0     0     0     1   1.560 0.000E+00 0.000E+00 0.000E+00
       656.115597       24.126242       34.027665     1     0     0     0     1   1.560 0.000E+00 0.000E+00 0.000E+00
       588.510165       38.211191       77.321242     1     0     0     0     1   1.560 0.000E+00 0.000E+00 0.000E+00
        65.392569       10.805267       98.198583     1     0     0     0     1   1.560 0.000E+00 0.000E+00 0.000E+00
       800.183512        8.722008       99.915609     1     0     0     0     1   1.560 0.000E+00 0.000E+00 0.000E+00
        41.396501       56.664263       68.787430     1     0     0     0     1   1.560 0.000E+00 0.000E+00 0.000E+00
       683.071408        6.696377       68.931709     1     0     0     0     1   1.560 0.000E+00 0.000E+00 0.000E+00
       360.929291       83.833065       37.335308     1     0     0     0     1   1.560 0.000E+00 0.000E+00 0.000E+00
       555.740640       67.292519       72.367775     1     0     0     0     1   1.560 0.000E+00 0.000E+00 0.000E+00
       357.830567       99.311845       51.912917     1     0     0     0     1   1.560 0.000E+00 0.000E+00 0.000E+00
       338.554489        2.488382       33.469139     1     0     0     0     1   1.560 0.000E+00 0.000E+00 0.000E+00
        37.262393       21.379107       87.882117     1     0     0     0     1   1.560 0.000E+00 0.000E+00 0.000E+00
       311.617453       27.948782        7.621955     1     0     0     0     1   1.560 0.000E+00 0.000E+00 0.000E+00
       493.806643       97.268933       27.601126     1     0     0     0     1   1.560 0.000E+00 0.000E+00 0.000E+00
       477.038460        9.715068       25.814064     1     0     0     0     1   1.560 0.000E+00 0.000E+00 0.000E+00
       179.434292       19.190363        3.598538     1     0     0     0     1   1.560 0.000E+00 0.000E+00 0.000E+00
       423.655789        1.131006        6.636124     1     0     0     0     1   1.560 0.000E+00 0.000E+00 0.000E+00
       217.650174       93.894642       61.206138     1     0     0     0     1   1.560 0.000E+00 0.000E+00 0.000E+00
       772.345191       16.646669       24.297096     1     0     0     0     1   1.560 0.000E+00 0.000E+00 0.000E+00
       326.944812       14.137964       94.248708     1     0     0     0     1   1.560 0.000E+00 0.000E+00 0.000E+00
       960.398349       36.596382       91.806320     1     0     0     0     1   1.560 0.000E+00 0.000E+00 0.000E+00
       817.512584       35.411392       36.498826     1     0     0     0     1   1.560 0.000E+00 0.000E+00 0.000E+00
       908.479561       70.433459       32.002303     1     0     0     0     1   1.560 0.000E+00 0.000E+00 0.000E+00
       393.419665       91.503029       70.337869     1     0     0     0     1   1.560 0.000E+00 0.000E+00 0.000E+00
       454.088184       99.876511        3.692176     1     0     0     0     1   1.560 0.000E+00 0.000E+00 0.000E+00
        11.404573       28.809944       77.840017     1     0     0     0     1   1.560 0.000E+00 0.000E+00 0.000E+00
       230.317188       69.785906       89.689206     1     0     0     0     1   1.560 0.000E+00 0.000E+00 0.000E+00
       477.888441       12.305645       64.644333     1     0     0     0     1   1.560 0.000E+00 0.000E+00 0.000E+00
       427.490557       48.737800       76.456557     1     0     0     0     1   1.560 0.000E+00 0.000E+00 0.000E+00
       989.247785       88.988014       79.241335     1     0     0     0     1   1.560 0.000E+00 0.000E+00 0.000E+00
       224.281993       34.688680       82.196523     1     0     0     0     1   1.560 0.000E+00 0.000E+00 0.000E+00
       330.196112       80.051713       71.788888     1     0     0     0     1   1.560 0.000E+00 0.000E+00 0.000E+00
        41.301687       76.039694       21.306379     1     0     0     0     1   1.560 0.000E+00 0.000E+00 0.000E+00
       499.656122       41.122382       35.938259     1     0     0     0     1   1.560 0.000E+00 0.000E+00 0.000E+00
       791.784417       43.179893       19.228582     1     0     0     0     1   1.560 0.000E+00 0.000E+00 0.000E+00
       406.933536       86.576498       80.750385     1     0     0     0     1   1.560 0.000E+00 0.000E+00 0.000E+00
       120.816735       62.004767       70.901539     1     0     0     0     1   1.560 0.000E+00 0.000E+00 0.000E+00
       421.172991        3.547295       84.509237     1     0     0     0     1   1.560 0.000E+00 0.000E+00 0.000E+00
       788.068127       21.600436       35.150115     1     0     0     0     1   1.560 0.000E+00 0.000E+00 0.000E+00
       969.435503       84.510967       14.739753     1     0     0     0     1   1.560 0.000E+00 0.000E+00 0.000E+00
       270.931562       84.195686       48.800875     1     0     0     0     1   1.560 0.000E+00 0.000E+00 0.000E+00
       762.638299       13.897747       20.626547     1     0     0     0     1   1.560 0.000E+00 0.000E+00 0.000E+00
        16.063222       69.699444       65.241640     1     0     0     0     1   1.560 0.000E+00 0.000E+00 0.000E+00
       908.698103       25.772126        9.646388     1     0     0     0     1   1.560 0.000E+00 0.000E+00 0.000E+00
       415.916535       23.680722       19.754004     1     0     0     0     1   1.560 0.000E+00 0.000E+00 0.000E+00
        95.228525       59.050912       35.349547     1     0     0     0     1   1.560 0.000E+00 0.000E+00 0.000E+00
       923.051655       93.221575       24.986114     1     0     0     0     1   1.560 0.000E+00 0.000E+00 0.000E+00
       224.191468       71.955768       51.003411     1     0     0     0     1   1.560 0.000E+00 0.000E+00 0.000E+00
       213.977124       32.544614       41.053273     1     0     0     0     1   1.560 0.000E+00 0.000E+00 0.000E+00
       347.203256       49.505124       93.228486     1     0     0     0     1   1.560 0.000E+00 0.000E+00 0.000E+00
       947.261644       30.393131       80.731251     1     0     0     0     1   1.560 0.000E+00 0.000E+00 0.000E+00
       315.090046       73.272111       39.451052     1     0     0     0     1   1.560 0.000E+00 0.000E+00 0.000E+00
       377.415447       16.964346       99.616998     1     0     0     0     1   1.560 0.000E+00 0.000E+00 0.000E+00
       192.015159       60.718526       20.476205     1     0     0     0     1   1.560 0.000E+00 0.000E+00 0.000E+00
       606.847148       52.896777       96.274349     1     0     0     0     1   1.560 0.000E+00 0.000E+00 0.000E+00
       904.346380       89.189525       51.189790     1     0     0     0     1   1.560 0.000E+00 0.000E+00 0.000E+00
       332.822391        1.464632       58.342746     1     0     0     0     1   1.560 0.000E+00 0.000E+00 0.000E+00
       656.177718       55.079669        1.622637     1     0     0     0     1   1.560 0.000E+00 0.000E+00 0.000E+00
       737.298078       63.476239       30.467294     1     0     0     0     1   1.560 0.000E+00 0.000E+00 0.000E+00
       923.217668       16.619281        7.654349     1     0     0     0     1   1.560 0.000E+00 0.000E+00 0.000E+00
        41.550885       84.928323       48.254269     1     0     0     0     1   1.560 0.000E+00 0.000E+00 0.000E+00
        77.063092       68.737745       62.400586     1     0     0     0     1   1.560 0.000E+00 0.000E+00 0.000E+00
       845.992109       46.865104       66.165754     1     0     0     0     1   1.560 0.000E+00 0.000E+00 0.000E+00
       900.529380       84.264646       18.537427     1     0     0     0     1   1.560 0.000E+00 0.000E+00 0.000E+00
       888.849062       76.484384       43.577639     1     0     0     0     1   1.560 0.000E+00 0.000E+00 0.000E+00
       821.877638       77.431619       65.528199     1     0     0     0     1   1.560 0.000E+00 0.000E+00 0.000E+00
       610.768941        2.541401       19.850155     1     0     0     0     1   1.560 0.000E+00 0.000E+00 0.000E+00
       994.740909       43.959587       98.544128     1     0     0     0     1   1.560 0.000E+00 0.000E+00 0.000E+00
       877.211097       33.606356        5.931677     1     0     0     0     1   1.560 0.000E+00 0.000E+00 0.000E+00
       529.019667       55.725730       67.655328     1     0     0     0     1   1.560 0.000E+00 0.000E+00 0.000E+00
         0.915725       32.176987       17.613468     1     0     0     0     1   1.560 0.000E+00 0.000E+00 0.000E+00
       957.645288       93.648448       18.391448     1     0     0     0     1   1.560 0.000E+00 0.000E+00 0.000E+00
       964.350434       15.082797       87.110390     1     0     0     0     1   1.560 0.000E+00 0.000E+00 0.000E+00
       775.444054       11.783017       32.897099     1     0     0     0     1   1.560 0.000E+00 0.000E+00 0.000E+00
       679.988206        1.477360        3.953200     1     0     0     0     1   1.560 0.000E+00 0.000E+00 0.000E+00
       760.039263       12.561692       98.957920     1     0     0     0     1   1.560 0.000E+00 0.000E+00 0.000E+00
       472.399727       49.945504       80.526705     1     0     0     0     1   1.560 0.000E+00 0.000E+00 0.000E+00
       186.423701       63.602894       92.220034     1     0     0     0     1   1.560 0.000E+00 0.000E+00 0.000E+00
       347.011728        2.876827       52.082914     1     0     0     0     1   1.560 0.000E+00 0.000E+00 0.000E+00
       316.346450       32.152326       50.073140     1     0     0     0     1   1.560 0.000E+00 0.000E+00 0.000E+00
       611.198089       23.803710       82.729692     1     0     0     0     1   1.560 0.000E+00 0.000E+00 0.000E+00
       934.022975       25.891047       40.311681     1     0     0     0     1   1.560 0.000E+00 0.000E+00 0.000E+00
       958.440675       87.104543       81.186158     1     0     0     0     1   1.560 0.000E+00 0.000E+00 0.000E+00
       459.524480       13.883338       32.805063     1     0     0     0     1   1.560 0.000E+00 0.000E+00 0.000E+00
       688.140480       23.074424       55.253810     1     0     0     0     1   1.560 0.000E+00 0.000E+00 0.000E+00
       835.482063        0.505990       69.267221     1     0     0     0     1   1.560 0.000E+00 0.000E+00 0.000E+00
       955.359172       50.589716       98.094770     1     0     0     0     1   1.560 0.000E+00 0.000E+00 0.000E+00
       493.514345       30.066512       11.924461     1     0     0     0     1   1.560 0.000E+00 0.000E+00 0.000E+00
       433.890980       55.027870       55.410889     1     0     0     0     1   1.560 0.000E+00 0.000E+00 0.000E+00
       200.356099       60.819680       16.201953     1     0     0     0     1   1.560 0.000E+00 0.000E+00 0.000E+00
       480.121831       76.483237       84.424483     1     0     0     0     1   1.560 0.000E+00 0.000E+00 0.000E+00
       777.170248       15.438295       21.888507     1     0     0     0     1   1.560 0.000E+00 0.000E+00 0.000E+00
       944.238274       32.754139       70.554656     1     0     0     0     1   1.560 0.000E+00 0.000E+00 0.000E+00
       343.968173       64.669943       95.814628     1     0     0     0     1   1.560 0.000E+00 0.000E+00 0.000E+00
       175.874093       92.774475       61.735742     1     0     0     0     1   1.560 0.000E+00 0.000E+00 0.000E+00
       117.830449       13.935348       89.215550     1     0     0     0     1   1.560 0.000E+00 0.000E+00 0.000E+00
       280.513843        5.550292       55.369687     1     0     0     0     1   1.560 0.000E+00 0.000E+00 0.000E+00
       493.043185       14.371025       52.783999     1     0     0     0     1   1.560 0.000E+00 0.000E+00 0.000E+00
       330.144242       77.287479       81.237898     1     0     0     0     1   1.560 0.000E+00 0.000E+00 0.000E+00
       441.932730       53.963212       79.684852     1     0     0     0     1   1.560 0.000E+00 0.000E+00 0.000E+00
       337.476093       68.687310       24.650271     1     0     0     0     1   1.560 0.000E+00 0.000E+00 0.000E+00
       740.609984       56.259768       87.171689     1     0     0     0     1   1.560 0.000E+00 0.000E+00 0.000E+00
       919.290736       26.670472        1.687339     1     0     0     0     1   1.560 0.000E+00 0.000E+00 0.000E+00
       730.367271       84.552838       15.605330     1     0     0     0     1   1.560 0.000E+00 0.000E+00 0.000E+00
       686.059949       24.622641       96.556752     1     0     0     0     1   1.560 0.000E+00 0.000E+00 0.000E+00
       888.370740       20.345413       34.954595     1     0     0     0     1   1.560 0.000E+00 0.000E+00 0.000E+00
       948.529671        8.264738        4.028821     1     0     0     0     1   1.560 0.000E+00 0.000E+00 0.000E+00
       932.721916       23.280355        4.887756     1     0     0     0     1   1.560 0.000E+00 0.000E+00 0.000E+00
       186.924769       98.069127       49.459344     1     0     0     0     1   1.560 0.000E+00 0.000E+00 0.000E+00
       548.317876       17.047816       21.438372     1     0     0     0     1   1.560 0.000E+00 0.000E+00 0.000E+00
       256.244846       20.142961       79.346600     1     0     0     0     1   1.560 0.000E+00 0.000E+00 0.000E+00
       258.220479        5.178574       99.680464     1     0     0     0     1   1.560 0.000E+00 0.000E+00 0.000E+00
       993.597008       50.801098       43.037008     1     0     0     0     1   1.560 0.000E+00 0.000E+00 0.000E+00
       329.953526       78.411706       58.893489     1     0     0     0     1   1.560 0.000E+00 0.000E+00 0.000E+00
       823.549737       50.891800       16.619718     1     0     0     0     1   1.560 0.000E+00 0.000E+00 0.000E+00
       925.911265       43.820530       66.433928     1     0     0     0     1   1.560 0.000E+00 0.000E+00 0.000E+00
       354.452565       83.465379       65.082635     1     0     0     0     1   1.560 0.000E+00 0.000E+00 0.000E+00
       861.800851        3.743121       28.458118     1     0     0     0     1   1.560 0.000E+00 0.000E+00 0.000E+00
       667.257060       93.295350       39.657234     1     0     0     0     1   1.560 0.000E+00 0.000E+00 0.000E+00
        47.082491       63.999190       56.637229     1     0     0     0     1   1.560 0.000E+00 0.000E+00 0.000E+00
       506.750228        5.635512       81.158018     1     0     0     0     1   1.560 0.000E+00 0.000E+00 0.000E+00
        72.583738       10.057528       83.968043     1     0     0     0     1   1.560 0.000E+00 0.000E+00 0.000E+00
       729.666583       79.455546       96.126443     1     0     0     0     1   1.560 0.000E+00 0.000E+00 0.000E+00
       968.449372       34.462733        7.214642     1     0     0     0     1   1.560 0.000E+00 0.000E+00 0.000E+00
       859.668613       37.559784       87.053136     1     0     0     0     1   1.560 0.000E+00 0.000E+00 0.000E+00
       759.088667       23.701167       66.739417     1     0     0     0     1   1.560 0.000E+00 0.000E+00 0.000E+00
       648.036805       96.726828       26.755205     1     0     0     0     1   1.560 0.000E+00 0.000E+00 0.000E+00
        98.886302       32.999305        4.382800     1     0     0     0     1   1.560 0.000E+00 0.000E+00 0.000E+00
        90.016467        0.229439       41.821579     1     0     0     0     1   1.560 0.000E+00 0.000E+00 0.000E+00
        23.170810       53.213240       25.104816     1     0     0     0     1   1.560 0.000E+00 0.000E+00 0.000E+00
       436.032928       29.721569        4.905145     1     0     0     0     1   1.560 0.000E+00 0.000E+00 0.000E+00
       242.730794       69.201271       35.152832     1     0     0     0     1   1.560 0.000E+00 0.000E+00 0.000E+00
        81.332108        3.980439       95.502706     1     0     0     0     1   1.560 0.000E+00 0.000E+00 0.000E+00
       961.149737       86.229037       29.710504     1     0     0     0     1   1.560 0.000E+00 0.000E+00 0.000E+00
       175.220595       58.597070       88.197013     1     0     0     0     1   1.560 0.000E+00 0.000E+00 0.000E+00
        52.426481       79.453864       56.010049     1     0     0     0     1   1.560 0.000E+00 0.000E+00 0.000E+00
       564.857766       23.707670       56.096337     1     0     0     0     1   1.560 0.000E+00 0.000E+00 0.000E+00
       338.920437       48.577358       41.274563     1     0     0     0     1   1.560 0.000E+00 0.000E+00 0.000E+00
       327.157383       86.653989       10.803599     1     0     0     0     1   1.560 0.000E+00 0.000E+00 0.000E+00
       771.532693       37.284490        9.844593     1     0     0     0     1   1.560 0.000E+00 0.000E+00 0.000E+00
       607.269818       85.078460       59.067499     1     0     0     0     1   1.560 0.000E+00 0.000E+00 0.000E+00
        88.796398       32.316105       40.196962     1     0     0     0     1   1.560 0.000E+00 0.000E+00 0.000E+00
       139.717891       50.857455       48.903870     1     0     0     0     1   1.560 0.000E+00 0.000E+00 0.000E+00
       553.910177       73.435231       27.768015     1     0     0     0     1   1.560 0.000E+00 0.000E+00 0.000E+00
       975.244425       90.456831       43.056493     1     0     0     0     1   1.560 0.000E+00 0.000E+00 0.000E+00
       759.878544       10.958565       80.720232     1     0     0     0     1   1.560 0.000E+00 0.000E+00 0.000E+00
       240.315138       26.245610       73.733973     1     0     0     0     1   1.560 0.000E+00 0.000E+00 0.000E+00
       554.904104       19.793777       10.071143     1     0     0     0     1   1.560 0.000E+00 0.000E+00 0.000E+00
       845.505413       66.889522       37.490706     1     0     0     0     1   1.560 0.000E+00 0.000E+00 0.000E+00
       902.785762       87.870640       67.922319     1     0     0     0     1   1.560 0.000E+00 0.000E+00 0.000E+00
       632.950507       82.969452       76.572940     1     0     0     0     1   1.560 0.000E+00 0.000E+00 0.000E+00
       611.936116       26.429538       81.197580     1     0     0     0     1   1.560 0.000E+00 0.000E+00 0.000E+00
       786.310943       56.793026       81.993589     1     0     0     0     1   1.560 0.000E+00 0.000E+00 0.000E+00
       799.640552       34.682022       46.764525     1     0     0     0     1   1.560 0.000E+00 0.000E+00 0.000E+00
       929.962121       36.313848       94.730877     1     0     0     0     1   1.560 0.000E+00 0.000E+00 0.000E+00
       727.633814       33.553617       33.884143     1     0     0     0     1   1.560 0.000E+00 0.000E+00 0.000E+00
       998.819615       91.154246        7.776649     1     0     0     0     1   1.560 0.000E+00 0.000E+00 0.000E+00
       416.789767        0.930306        4.586707     1     0     0     0     1   1.560 0.000E+00 0.000E+00 0.000E+00
       594.178856       41.134894       35.819379     1     0     0     0     1   1.560 0.000E+00 0.000E+00 0.000E+00
       811.626571       92.554581       55.629777     1     0     0     0     1   1.560 0.000E+00 0.000E+00 0.000E+00
        63.790300       56.310309       38.426076     1     0     0     0     1   1.560 0.000E+00 0.000E+00 0.000E+00
       736.876924       82.230390       66.541958     1     0     0     0     1   1.560 0.000E+00 0.000E+00 0.000E+00
       172.596708       45.140268        1.750852     1     0     0     0     1   1.560 0.000E+00 0.000E+00 0.000E+00
       349.723761        3.139246       54.172486     1     0     0     0     1   1.560 0.000E+00 0.000E+00 0.000E+00
       595.560741       23.819074       97.607497     1     0     0     0     1   1.560 0.000E+00 0.000E+00 0.000E+00
       505.294489       68.856182       92.008870     1     0     0     0     1   1.560 0.000E+00 0.000E+00 0.000E+00
       830.570695       57.145087       97.759850     1     0     0     0     1   1.560 0.000E+00 0.000E+00 0.000E+00
       265.665516       99.272224       52.447920     1     0     0     0     1   1.560 0.000E+00 0.000E+00 0.000E+00
       288.002942       68.666500       64.399983     1     0     0     0     1   1.560 0.000E+00 0.000E+00 0.000E+00
       307.372883       14.541679       17.486312     1     0     0     0     1   1.560 0.000E+00 0.000E+00 0.000E+00
       981.061687       24.094060       14.288626     1     0     0     0     1   1.560 0.000E+00 0.000E+00 0.000E+00
       811.809314       10.072692       14.328014     1     0     0     0     1   1.560 0.000E+00 0.000E+00 0.000E+00
       453.584655       41.919474       57.323766     1     0     0     0     1   1.560 0.000E+00 0.000E+00 0.000E+00
       936.624428       62.268509       22.954823     1     0     0     0     1   1.560 0.000E+00 0.000E+00 0.000E+00
       885.785351       73.405301        0.246744     1     0     0     0     1   1.560 0.000E+00 0.000E+00 0.000E+00
       355.104833       81.511573       92.737943     1     0     0     0     1   1.560 0.000E+00 0.000E+00 0.000E+00
       856.892425       61.155497       63.574870     1     0     0     0     1   1.560 0.000E+00 0.000E+00 0.000E+00
       973.423627       57.196989       12.663250     1     0     0     0     1   1.560 0.000E+00 0.000E+00 0.000E+00
        65.559073       19.311968       11.360986     1     0     0     0     1   1.560 0.000E+00 0.000E+00 0.000E+00
       737.044914       93.264067       30.151220     1     0     0     0     1   1.560 0.000E+00 0.000E+00 0.000E+00
       307.384643       23.390067        8.488334     1     0     0     0     1   1.560 0.000E+00 0.000E+00 0.000E+00
       751.808212       52.206151       48.488070     1     0     0     0     1   1.560 0.000E+00 0.000E+00 0.000E+00
       288.418986        8.501628       68.375284     1     0     0     0     1   1.560 0.000E+00 0.000E+00 0.000E+00
       548.172165       14.663485       88.259329     1     0     0     0     1   1.560 0.000E+00 0.000E+00 0.000E+00
       367.660795       75.829357       43.741792     1     0     0     0     1   1.560 0.000E+00 0.000E+00 0.000E+00
       525.032705       93.691129       37.307012     1     0     0     0     1   1.560 0.000E+00 0.000E+00 0.000E+00
       306.885938       83.819993       50.122420     1     0     0     0     1   1.560 0.000E+00 0.000E+00 0.000E+00
        24.199920       41.434528       32.643739     1     0     0     0     1   1.560 0.000E+00 0.000E+00 0.000E+00
       461.310060       25.246653       77.422287     1     0     0     0     1   1.560 0.000E+00 0.000E+00 0.000E+00
       664.064142       56.967424       66.238946     1     0     0     0     1   1.560 0.000E+00 0.000E+00 0.000E+00
       270.942581       75.352495       95.148773     1     0     0     0     1   1.560 0.000E+00 0.000E+00 0.000E+00
       216.194512       71.053062       27.154571     1     0     0     0     1   1.560 0.000E+00 0.000E+00 0.000E+00
       494.488726       17.633576       10.854254     1     0     0     0     1   1.560 0.000E+00 0.000E+00 0.000E+00
       488.185554       31.245718       38.605868     1     0     0     0     1   1.560 0.000E+00 0.000E+00 0.000E+00
       281.737325        9.054146       60.012978     1     0     0     0     1   1.560 0.000E+00 0.000E+00 0.000E+00
       679.576264       68.784727       25.497168     1     0     0     0     1   1.560 0.000E+00 0.000E+00 0.000E+00
       432.993548       26.087930       73.614539     1     0     0     0     1   1.560 0.000E+00 0.000E+00 0.000E+00
       935.512265       75.883423       10.717099     1     0     0     0     1   1.560 0.000E+00 0.000E+00 0.000E+00
       122.016527       59.010049       34.822642     1     0     0     0     1   1.560 0.000E+00 0.000E+00 0.000E+00
       703.499189       53.447493       49.366501     1     0     0     0     1   1.560 0.000E+00 0.000E+00 0.000E+00
       799.716265       55.456660       62.624520     1     0     0     0     1   1.560 0.000E+00 0.000E+00 0.000E+00
       882.532011       76.695053       47.277295     1     0     0     0     1   1.560 0.000E+00 0.000E+00 0.000E+00
       707.779340       84.368576       57.834182     1     0     0     0     1   1.560 0.000E+00 0.000E+00 0.000E+00
       278.364719       96.589563       83.487252     1     0     0     0     1   1.560 0.000E+00 0.000E+00 0.000E+00
       807.439924       65.725686       61.007277     1     0     0     0     1   1.560 0.000E+00 0.000E+00 0.000E+00
        82.767586       11.112900       56.540961     1     0     0     0     1   1.560 0.000E+00 0.000E+00 0.000E+00
       481.051164       13.136049       52.345041     1     0     0     0     1   1.560 0.000E+00 0.000E+00 0.000E+00
       445.331789       65.756459       15.273500     1     0     0     0     1   1.560 0.000E+00 0.000E+00 0.000E+00
       951.028400       56.303521       99.129981     1     0     0     0     1   1.560 0.000E+00 0.000E+00 0.000E+00
       458.534109       57.741635       40.507752     1     0     0     0     1   1.560 0.000E+00 0.000E+00 0.000E+00
       952.039371       67.415920       57.427713     1     0     0     0     1   1.560 0.000E+00 0.000E+00 0.000E+00
       591.406031       29.002396       12.566774     1     0     0     0     1   1.560 0.000E+00 0.000E+00 0.000E+00
       638.138442       35.096112       14.614688     1     0     0     0     1   1.560 0.000E+00 0.000E+00 0.000E+00
       818.578839       12.676392       33.269206     1     0     0     0     1   1.560 0.000E+00 0.000E+00 0.000E+00
       614.390604       66.987897       33.623695     1     0     0     0     1   1.560 0.000E+00 0.000E+00 0.000E+00
       874.297273       63.680448       69.071702     1     0     0     0     1   1.560 0.000E+00 0.000E+00 0.000E+00
       898.825661       70.309678       33.343244     1     0     0     0     1   1.560 0.000E+00 0.000E+00 0.000E+00
       196.499431       84.974439       57.494489     1     0     0     0     1   1.560 0.000E+00 0.000E+00 0.000E+00