ITEM: TIMESTEP
0
ITEM: NUMBER OF ATOMS
632
ITEM: BOX BOUNDS pp pp pp
0.0     1000.000000 
0.0      100.000000 
0.0      100.000000 
ITEM: ATOMS x y z f1 f2 f3 f4 orient
      80.740172       83.748741       21.025851      1      0      0      0      1
     784.026878       47.681191       44.610924      1      0      0      0      1
     617.418879       32.500022       62.653872      1      0      0      0      1
     469.024499       79.737296       38.650888      1      0      0      0      1
     609.862828       59.162792       44.613403      1      0      0      0      1
     828.020798        3.490796       51.356016      1      0      0      0      1
      11.976688       87.627667       86.488687      1      0      0      0      1
     630.999728       93.769384       30.227177      1      0      0      0      1
     425.732070        2.155025       73.284918      1      0      0      0      1
     467.385391       97.503498       35.930298      1      0      0      0      1
      16.102718       52.766311       99.883761      1      0      0      0      1
     607.284846       55.784022       70.009537      1      0      0      0      1
     632.579475       68.962051       89.520701      1      0      0      0      1
     703.516870       31.998779       39.159130      1      0      0      0      1
     446.632419       19.754050       88.149685      1      0      0      0      1
     251.614054       97.933498       70.732226      1      0      0      0      1
     151.223215       36.298871       25.582525      1      0      0      0      1
     393.089902       58.160475       57.010992      1      0      0      0      1
     549.488912       91.655817       74.454801      1      0      0      0      1
     134.931807       96.599474       35.404677      1      0      0      0      1
     261.823673       35.405363       47.194184      1      0      0      0      1
     490.595019       44.805946       71.693119      1      0      0      0      1
     872.437429       62.216940       74.308454      1      0      0      0      1
      69.422547       42.167914       87.344401      1      0      0      0      1
     744.926978       36.695940       11.536203      1      0      0      0      1
     321.464690        4.902813       39.162532      1      0      0      0      1
     431.243024       57.497781       58.682694      1      0      0      0      1
     325.655396       14.918102       12.586289      1      0      0      0      1
     414.891120       12.235120       10.545114      1      0      0      0      1
     962.495045       36.494946       18.428290      1      0      0      0      1
     210.323320       87.949021       56.830074      1      0      0      0      1
     632.879281       40.740350       28.271331      1      0      0      0      1
     948.398703       20.484637       65.021777      1      0      0      0      1
     928.864912       78.272393       67.892193      1      0      0      0      1
     364.791233       45.863635       69.878458      1      0      0      0      1
     977.682620       93.241434       56.008576      1      0      0      0      1
     174.915991       74.144791       25.839710      1      0      0      0      1
     720.306498       92.416039       48.486723      1      0      0      0      1
      81.215926       79.024863       24.209506      1      0      0      0      1
     966.461389       35.021374       32.780198      1      0      0      0      1
     307.119322       25.788865       30.053277      1      0      0      0      1
     675.337069       67.718535       46.904218      1      0      0      0      1
      23.590129       98.620233        7.180919      1      0      0      0      1
     581.363193       72.702494       70.691852      1      0      0      0      1
     651.821161       31.111630       54.157079      1      0      0      0      1
      83.792942       65.178057       85.980857      1      0      0      0      1
     198.987496       45.669463       17.132359      1      0      0      0      1
     454.110386       65.041551       46.976969      1      0      0      0      1
     209.863035       86.143728       89.580606      1      0      0      0      1
     706.877155       70.505937        0.085638      1      0      0      0      1
     621.233304       40.268396        1.397698      1      0      0      0      1
       0.434013       35.433488       93.812023      1      0      0      0      1
     650.167430       57.991168       78.208220      1      0      0      0      1
     845.070132       40.732047       11.545870      1      0      0      0      1
     940.230011       26.796970       76.842231      1      0      0      0      1
     737.947804       10.785048       80.849951      1      0      0      0      1
     903.258558        3.827272       41.771062      1      0      0      0      1
     728.755066       86.487110       28.958996      1      0      0      0      1
     837.708385       64.903115       68.134393      1      0      0      0      1
     458.434666        1.822205       81.676436      1      0      0      0      1
     921.233253       34.257608       91.907350      1      0      0      0      1
     549.592682       64.411010        6.353542      1      0      0      0      1
     980.283117       24.404238       61.062634      1      0      0      0      1
      75.866246       18.261545       82.777624      1      0      0      0      1
     858.810224        2.914918       62.048473      1      0      0      0      1
     392.743985       86.704772       62.244585      1      0      0      0      1
     889.301732        8.904136       31.723792      1      0      0      0      1
     787.611034       34.415089       24.343540      1      0      0      0      1
     840.168382       37.187825       45.662707      1      0      0      0      1
     642.518666        1.762541       42.508357      1      0      0      0      1
     446.792066       43.956438       84.890014      1      0      0      0      1
     698.201838       84.953556       16.918985      1      0      0      0      1
     982.390533       47.262003       71.012042      1      0      0      0      1
     622.044084       34.914147       41.866348      1      0      0      0      1
     256.924427       62.002529       55.949927      1      0      0      0      1
     836.743321       38.507626       29.913529      1      0      0      0      1
     588.675653       12.175066        2.262204      1      0      0      0      1
     664.955437       39.088367       96.771752      1      0      0      0      1
     335.158262       21.498058       88.402475      1      0      0      0      1
     316.813811       74.432162       62.218805      1      0      0      0      1
      78.132690       13.857136       57.182476      1      0      0      0      1
     776.554151       62.782557       47.974257      1      0      0      0      1
     276.799497       42.327492       83.733702      1      0      0      0      1
     346.185219       44.447067       14.880328      1      0      0      0      1
     861.306263        0.286266       12.289607      1      0      0      0      1
     891.587722       10.696602        7.398232      1      0      0      0      1
      73.590614       36.177802       45.631911      1      0      0      0      1
     943.015694        7.821807       10.521452      1      0      0      0      1
     902.043057       84.301525       22.140516      1      0      0      0      1
     584.073750       37.023987       40.995143      1      0      0      0      1
      79.807729       24.293071       35.538181      1      0      0      0      1
     294.413450       14.369340       35.352183      1      0      0      0      1
     304.820904       60.064569       66.794771      1      0      0      0      1
     392.237576       28.580644       34.859887      1      0      0      0      1
     856.795630       34.359671        2.263655      1      0      0      0      1
     295.613292       79.278062       37.665385      1      0      0      0      1
     491.267987       25.071333       51.486997      1      0      0      0      1
     709.555886       13.869235       80.021570      1      0      0      0      1
      85.187633       91.145902       66.725693      1      0      0      0      1
     127.844502        3.689209       16.151143      1      0      0      0      1
     889.923190       39.181027       43.048936      1      0      0      0      1
     465.767363       33.518613       68.288674      1      0      0      0      1
     458.270614       11.381209       77.662287      1      0      0      0      1
     571.363200       45.272585        1.725888      1      0      0      0      1
     275.527376       57.101274       16.160756      1      0      0      0      1
     817.676482        4.396654       95.171648      1      0      0      0      1
     653.841797       47.656923       10.069574      1      0      0      0      1
     241.519540       99.756465       90.097249      1      0      0      0      1
     175.290693       53.108975        1.801571      1      0      0      0      1
     151.266156       89.464844       40.851885      1      0      0      0      1
     746.325922       15.273394       58.211162      1      0      0      0      1
     714.863721       86.285255       45.077039      1      0      0      0      1
     815.281904       37.991705       50.105452      1      0      0      0      1
     994.513185       46.285755       57.578960      1      0      0      0      1
     234.838439       24.710692       58.112376      1      0      0      0      1
     550.771779       58.241221       19.650981      1      0      0      0      1
      51.311333        2.967883       13.898799      1      0      0      0      1
      67.515824        9.896563       81.553714      1      0      0      0      1
     907.010922       99.259085       80.408554      1      0      0      0      1
     466.219160       72.244265       52.206087      1      0      0      0      1
     237.404652       55.385021       14.117784      1      0      0      0      1
     452.424917       64.614118       79.065531      1      0      0      0      1
     565.785777       77.276644       95.217427      1      0      0      0      1
     678.832641        0.951614        3.680625      1      0      0      0      1
      59.905332       98.160527       22.541407      1      0      0      0      1
     941.953508       69.087813       40.771309      1      0      0      0      1
     735.226622       13.735201        4.485663      1      0      0      0      1
     159.358958       76.501421       86.494217      1      0      0      0      1
     800.427846       61.626872       27.906717      1      0      0      0      1
     427.514241       83.194064       82.156026      1      0      0      0      1
     139.172801       81.690324       25.419011      1      0      0      0      1
     474.526718       45.143649       93.675339      1      0      0      0      1
     901.543331       91.469717       94.806999      1      0      0      0      1
     959.148152       16.364631       86.939740      1      0      0      0      1
     121.749853       71.732592       37.601859      1      0      0      0      1
     281.330703       54.439553       29.639527      1      0      0      0      1
     378.973252       64.578526       30.792289      1      0      0      0      1
     992.931710       83.503858       88.786498      1      0      0      0      1
      47.782036       56.340845       69.769184      1      0      0      0      1
     277.691719       11.900713       62.209304      1      0      0      0      1
     649.927412       11.796387        0.862480      1      0      0      0      1
     783.853829       35.350704       88.829123      1      0      0      0      1
     846.641182       84.886160       41.077859      1      0      0      0      1
     171.530658       70.985605       85.877936      1      0      0      0      1
     448.336169       26.924511       38.082950      1      0      0      0      1
     138.309050       63.772341       16.563900      1      0      0      0      1
     961.291134       46.611607       34.523604      1      0      0      0      1
     327.607637       67.457860        1.111834      1      0      0      0      1
     759.213277       36.396510       77.456971      1      0      0      0      1
     529.761711       82.018880       16.391375      1      0      0      0      1
     763.056489       31.803618       42.045872      1      0      0      0      1
     732.843872       38.148223       74.136854      1      0      0      0      1
     567.765750       99.762520       60.523567      1      0      0      0      1
      80.108585       70.514803       38.278655      1      0      0      0      1
     516.391223       86.481107       91.511252      1      0      0      0      1
     518.502996       98.382812       49.403821      1      0      0      0      1
     723.179770       59.101959       94.295067      1      0      0      0      1
     946.234760       13.817691        3.279818      1      0      0      0      1
      85.958666       65.253730       74.566876      1      0      0      0      1
     180.424637       33.608406       25.737362      1      0      0      0      1
     290.155224       37.216760       56.780009      1      0      0      0      1
     839.697260       41.082427       72.647235      1      0      0      0      1
     511.365060       21.211572       35.327759      1      0      0      0      1
     656.779741       18.291539        5.108701      1      0      0      0      1
      22.062901       33.314200       54.258580      1      0      0      0      1
     127.127447       40.304083       70.131591      1      0      0      0      1
     600.307893       15.636765       90.862318      1      0      0      0      1
     213.158308       42.643777       85.073121      1      0      0      0      1
      83.673797       30.865674       54.925799      1      0      0      0      1
     583.575024       46.208464       32.653307      1      0      0      0      1
     426.503710       26.443449       10.032165      1      0      0      0      1
     264.369399       48.082481       98.492401      1      0      0      0      1
     236.787660        2.213911       78.508128      1      0      0      0      1
     216.256117       11.442786       42.706999      1      0      0      0      1
     111.539677       15.813549       24.903631      1      0      0      0      1
     921.230032       54.629983       47.555397      1      0      0      0      1
     587.927623       30.025926       69.477409      1      0      0      0      1
     112.825147       32.313191       87.411446      1      0      0      0      1
     285.109495       90.536352       42.130793      1      0      0      0      1
     358.175054       20.709846       12.609128      1      0      0      0      1
     973.078792       88.159097       19.368883      1      0      0      0      1
     145.550665        5.292347       60.668101      1      0      0      0      1
     907.829789       30.054009       89.692626      1      0      0      0      1
     946.449951       93.125922        9.550086      1      0      0      0      1
     746.116866       77.263231       78.216438      1      0      0      0      1
     230.664988       88.923045       75.533076      1      0      0      0      1
     476.613241       18.208599        3.279156      1      0      0      0      1
     214.134677       36.562521       91.252095      1      0      0      0      1
     106.944236       55.352154       41.044122      1      0      0      0      1
     852.273388        8.900225       48.648434      1      0      0      0      1
     198.844374       40.827986       59.889947      1      0      0      0      1
     768.094561       17.684185       14.593328      1      0      0      0      1
     971.257527       39.457346       50.663829      1      0      0      0      1
     428.893043       24.298416       77.055789      1      0      0      0      1
     331.620329       95.147958       55.877620      1      0      0      0      1
     795.620161       94.475416       53.358211      1      0      0      0      1
      65.985504       86.011347       41.099299      1      0      0      0      1
     850.098649        1.114116       92.632866      1      0      0      0      1
     204.952155       97.416673        2.064954      1      0      0      0      1
     755.630863        3.074865       37.519013      1      0      0      0      1
     552.788586       91.062020        6.376806      1      0      0      0      1
     889.836068       67.199992        8.072585      1      0      0      0      1
     978.926727       18.436145       29.261808      1      0      0      0      1
     633.512398       63.354498       14.836985      1      0      0      0      1
     393.334243       96.639235       34.675838      1      0      0      0      1
     836.872847       83.165757       75.457813      1      0      0      0      1
      16.119535       33.282889       68.844163      1      0      0      0      1
     587.502319       26.776638       91.462421      1      0      0      0      1
     535.686071       96.675587       27.591133      1      0      0      0      1
     597.671023       23.551790       57.729925      1      0      0      0      1
     157.157577       32.815647       71.852292      1      0      0      0      1
     590.938224       26.983214       46.525850      1      0      0      0      1
     114.770286       65.045841       56.193826      1      0      0      0      1
     662.137933       93.224355       97.337414      1      0      0      0      1
     329.911045        9.884351       48.597318      1      0      0      0      1
     585.083301       20.564234       24.165854      1      0      0      0      1
     810.391004       93.269516       45.930642      1      0      0      0      1
     282.494094       13.361794       59.213181      1      0      0      0      1
     987.205077       34.092780       27.996563      1      0      0      0      1
     616.820496       35.355716       13.220543      1      0      0      0      1
     305.959586       93.433296       78.571795      1      0      0      0      1
     819.271283       90.567876       52.066063      1      0      0      0      1
     599.278397       53.218515       86.117210      1      0      0      0      1
     502.161625       19.284760       21.917514      1      0      0      0      1
     144.727814       94.333318       17.173948      1      0      0      0      1
     465.822974       23.391361       30.661362      1      0      0      0      1
      93.249359       97.486049       53.368681      1      0      0      0      1
     188.638966       68.517581       22.477237      1      0      0      0      1
     773.632186        8.550944       41.310010      1      0      0      0      1
     716.142120       51.804157       37.983704      1      0      0      0      1
     390.149211       71.862667       68.357905      1      0      0      0      1
     356.097822       23.693507       10.871815      1      0      0      0      1
     750.153360       88.672086       66.384413      1      0      0      0      1
     508.451354       84.140345       94.673928      1      0      0      0      1
     287.486339       12.582629        1.495447      1      0      0      0      1
      15.398030       36.274718       71.361867      1      0      0      0      1
     459.924979       83.352548        3.426893      1      0      0      0      1
     102.673167       61.424274       38.837139      1      0      0      0      1
     616.491562       92.151811       35.151546      1      0      0      0      1
     566.059574       71.910646        1.816767      1      0      0      0      1
     335.334013       70.089299        1.364268      1      0      0      0      1
     222.227752       87.792018       10.020351      1      0      0      0      1
     377.615226       29.098350       77.657604      1      0      0      0      1
     165.582840       36.160095       96.449857      1      0      0      0      1
     873.777793       51.743743       78.040197      1      0      0      0      1
     609.971303       45.466630       42.704020      1      0      0      0      1
     465.116057       83.440974       61.682785      1      0      0      0      1
     858.069376       21.324061       11.500113      1      0      0      0      1
     349.098824       87.497136       41.751493      1      0      0      0      1
      86.708821       36.580509       26.577997      1      0      0      0      1
     825.399135       24.916737       43.885738      1      0      0      0      1
     300.485619       74.897598       68.279088      1      0      0      0      1
     406.859958       38.844768       87.441369      1      0      0      0      1
     402.101221       38.339709       87.912057      1      0      0      0      1
     462.794789       26.308252       93.183372      1      0      0      0      1
     203.920115       59.137469       59.674869      1      0      0      0      1
     348.934913       37.347517       30.363654      1      0      0      0      1
     148.020238       19.889111       79.290107      1      0      0      0      1
     624.541236       62.220852       86.187632      1      0      0      0      1
     382.254180       37.671016        0.585728      1      0      0      0      1
      76.889539       27.362716       36.109319      1      0      0      0      1
      50.786732       59.740457       20.753925      1      0      0      0      1
     740.709037       22.806476       84.279781      1      0      0      0      1
     572.801937       36.087754       53.382616      1      0      0      0      1
      16.602960       93.926680       88.615552      1      0      0      0      1
     380.189360       22.358599       74.861083      1      0      0      0      1
      94.325441       41.438247       67.216529      1      0      0      0      1
     872.085238       95.287913       30.950529      1      0      0      0      1
     589.116845       32.409694       36.808770      1      0      0      0      1
     412.391398       63.590359       16.189068      1      0      0      0      1
     904.374470       59.135389       76.910532      1      0      0      0      1
     414.378468       95.877482        9.585211      1      0      0      0      1
     508.743372       13.746321       47.571091      1      0      0      0      1
     650.760310       34.934801       27.592377      1      0      0      0      1
     713.422653       48.406874       92.286131      1      0      0      0      1
     398.860942       25.092564        1.779020      1      0      0      0      1
     798.413108       21.530385       49.431483      1      0      0      0      1
     230.041218       52.541071       91.601452      1      0      0      0      1
     306.687126       26.126893       17.814215      1      0      0      0      1
     293.089148       92.761859       65.801415      1      0      0      0      1
     557.092060       57.815646       90.150301      1      0      0      0      1
     823.452201       23.174725        5.730948      1      0      0      0      1
     909.664271        1.173121       60.178376      1      0      0      0      1
     968.886312       59.694592        6.739892      1      0      0      0      1
     758.297361       74.936622       63.617066      1      0      0      0      1
      92.304077        2.717238       27.731950      1      0      0      0      1
     946.880256       22.762972       89.075725      1      0      0      0      1
      96.704040       85.611956       34.703344      1      0      0      0      1
     389.111006        8.669126       51.312029      1      0      0      0      1
     734.253908       88.634765        5.652719      1      0      0      0      1
     472.899259        0.948918       52.053821      1      0      0      0      1
     514.804890       21.849809       44.391933      1      0      0      0      1
     714.454928       38.004035       73.772253      1      0      0      0      1
     738.617806        5.852628       28.135315      1      0      0      0      1
     959.215016       11.035591       26.075205      1      0      0      0      1
     708.193245       71.980945       83.127726      1      0      0      0      1
      75.396941       23.785390       88.706068      1      0      0      0      1
     954.310774       87.591038       15.946755      1      0      0      0      1
     502.188734       76.781839       12.700537      1      0      0      0      1
      45.260272       12.456259       27.770160      1      0      0      0      1
     715.789488        0.286054       49.748874      1      0      0      0      1
     349.010075       28.408174       35.638600      1      0      0      0      1
     810.527860       80.882398       83.416435      1      0      0      0      1
     707.097391       33.487703       42.773191      1      0      0      0      1
     968.532737       31.832608       38.065740      1      0      0      0      1
     159.968355       21.706179       16.036690      1      0      0      0      1
     669.423209       35.695988        7.981463      1      0      0      0      1
     551.488011       54.591268       82.828375      1      0      0      0      1
     997.649164       64.268310       44.147989      1      0      0      0      1
     789.134660       65.904188       42.475533      1      0      0      0      1
     309.404506       55.757001       57.154719      1      0      0      0      1
     323.952076       80.209357       44.243086      1      0      0      0      1
      14.939893       25.362361       38.532384      1      0      0      0      1
     370.696814       86.722687       14.593635      1      0      0      0      1
     993.374468       13.878525       52.678291      1      0      0      0      1
     762.774183       38.932790       23.681773      1      0      0      0      1
     816.572340       62.421591       30.656589      1      0      0      0      1
     637.824936        7.416612       67.704755      1      0      0      0      1
     118.329615       91.635312       54.803031      1      0      0      0      1
     255.662229        3.846739       82.777959      1      0      0      0      1
     897.242524       76.934386       60.885590      1      0      0      0      1
     895.633250       17.076386       17.795407      1      0      0      0      1
     712.971420       85.547441        6.667385      1      0      0      0      1
     583.245898       85.391862       99.266843      1      0      0      0      1
      64.719894       84.831744       63.515074      1      0      0      0      1
     109.600769       56.167855        9.366323      1      0      0      0      1
     186.442354       75.050709       38.176703      1      0      0      0      1
     757.228685       84.150325       11.927640      1      0      0      0      1
     419.585126        2.368388       48.414591      1      0      0      0      1
     121.949855        3.981062        5.675407      1      0      0      0      1
     670.111364       17.361002       46.756894      1      0      0      0      1
     134.317687       18.615566       48.012615      1      0      0      0      1
     353.406921       78.801188       83.571401      1      0      0      0      1
     478.661465       19.756004       42.920510      1      0      0      0      1
     951.204394       93.906689       40.373291      1      0      0      0      1
     283.452081       24.043005       51.407098      1      0      0      0      1
       3.204854       74.825703       89.106687      1      0      0      0      1
     684.399646       35.808977       76.661315      1      0      0      0      1
     225.115106       10.644956       50.484627      1      0      0      0      1
      27.998378       69.626017        7.031059      1      0      0      0      1
     713.469561       16.632292       19.738084      1      0      0      0      1
     243.636444       24.003374       14.988206      1      0      0      0      1
     761.422512       56.402706       39.352785      1      0      0      0      1
     968.584018       44.293506       84.873326      1      0      0      0      1
     849.991566       31.604792       46.128422      1      0      0      0      1
     941.507134       43.997986       26.597372      1      0      0      0      1
     269.078880       50.020415       33.627441      1      0      0      0      1
     759.905641       93.199539       28.831871      1      0      0      0      1
     472.006235       20.348730       49.074754      1      0      0      0      1
     138.654688       11.371203       39.141622      1      0      0      0      1
     688.194296       92.752114        8.907576      1      0      0      0      1
     221.160339       90.811274       98.401241      1      0      0      0      1
     440.580125        7.791239       82.138687      1      0      0      0      1
     793.951660       73.429013        3.220764      1      0      0      0      1
     591.263520       23.130331       42.518137      1      0      0      0      1
      92.494022       71.529478       15.636880      1      0      0      0      1
     713.043319       66.257682       17.149482      1      0      0      0      1
     481.375840       78.553527       86.012886      1      0      0      0      1
     935.883556       15.561209       51.407731      1      0      0      0      1