ITEM: TIMESTEP
99
ITEM: NUMBER OF ATOMS
1233
ITEM: BOX BOUNDS pp pp pp
0.0000000000000000e+00 3.4977424999999999e+02
0.0000000000000000e+00 3.5120190000000002e+02
0.0000000000000000e+00 2.8553000000000002e+00
ITEM: ATOMS mass type xs ys zs c_Eatom
55.847 3 0.540686 0.609519 0.000190399 -3.12186
55.847 3 0.532558 0.609552 0.000206963 -3.29373
55.847 3 0.524427 0.609576 0.000231252 -3.58948
55.847 3 0.520362 0.613638 0.500253 -3.12261
55.847 3 0.516292 0.609592 0.000261998 -3.84167
55.847 3 0.512225 0.613648 0.500285 -3.29268
55.847 3 0.508157 0.609598 0.00029759 -3.84224
55.847 3 0.504088 0.61365 0.500321 -3.29267
55.847 3 0.50002 0.609596 0.000336185 -3.84225
55.847 3 0.495951 0.613644 0.500359 -3.29271
55.847 3 0.491885 0.609585 0.000375843 -3.84172
55.847 3 0.487816 0.61363 0.500397 -3.12257
55.847 3 0.483752 0.609565 0.000414652 -3.58962
55.847 3 0.475622 0.609537 0.000450854 -3.29382
55.847 3 0.467497 0.609499 0.000482965 -3.12179
55.847 3 0.5569 0.601298 0.00017648 -3.12221
55.847 3 0.548789 0.601355 0.00017129 -3.6022
55.847 3 0.54474 0.60544 0.500179 -3.43318
55.847 3 0.540672 0.601403 0.000176292 -3.99881
55.847 3 0.536617 0.60548 0.50019 -3.84195
55.847 3 0.532549 0.601442 0.000191446 -4.01143
55.847 3 0.528489 0.605511 0.500211 -3.85393
55.847 3 0.524421 0.60147 0.000215936 -4.01203
55.847 3 0.520358 0.605533 0.500239 -3.99965
55.847 3 0.51629 0.601488 0.000248282 -4.01265
55.847 3 0.512224 0.605545 0.500273 -4.0115
55.847 3 0.508156 0.601496 0.000286499 -4.01265
55.847 3 0.504089 0.605547 0.500312 -4.01149
55.847 3 0.500022 0.601494 0.000328275 -4.01264
55.847 3 0.495954 0.60554 0.500353 -4.01149
55.847 3 0.491889 0.601481 0.000371155 -4.01264
55.847 3 0.487821 0.605523 0.500394 -3.99961
55.847 3 0.483759 0.601457 0.000412736 -4.01202
55.847 3 0.479691 0.605497 0.500433 -3.854
55.847 3 0.475633 0.601424 0.00045085 -4.01142
55.847 3 0.471566 0.605461 0.500468 -3.84207
55.847 3 0.467513 0.601381 0.000483737 -3.99877
55.847 3 0.463445 0.605417 0.500497 -3.43319
55.847 3 0.459399 0.601328 0.000510191 -3.60235
55.847 3 0.451292 0.601266 0.000529667 -3.1221
55.847 3 0.564963 0.593088 0.000193607 -3.4444
55.847 3 0.560936 0.597197 0.500182 -3.43246
55.847 3 0.556868 0.593163 0.000172306 -3.99858
55.847 3 0.552833 0.597263 0.500169 -3.85397
55.847 3 0.548766 0.59323 0.000161264 -4.01183
55.847 3 0.544722 0.59732 0.500166 -3.99989
55.847 3 0.540656 0.593287 0.000161982 -4.01246
55.847 3 0.536605 0.597368 0.500175 -4.01254
55.847 3 0.532538 0.593332 0.000174853 -4.01252
55.847 3 0.528482 0.597404 0.500194 -4.01258
55.847 3 0.524414 0.593366 0.000199147 -4.01257
55.847 3 0.520353 0.597429 0.500223 -4.0126
55.847 3 0.516286 0.593387 0.000233151 -4.01262
55.847 3 0.512222 0.597443 0.50026 -4.01262
55.847 3 0.508155 0.593396 0.000274395 -4.01263
55.847 3 0.504089 0.597446 0.500302 -4.01262
55.847 3 0.500024 0.593393 0.000319919 -4.01263
55.847 3 0.495957 0.597437 0.500347 -4.01262
55.847 3 0.491894 0.593378 0.00036656 -4.0126
55.847 3 0.487827 0.597418 0.500391 -4.01259
55.847 3 0.483768 0.59335 0.000411241 -4.01254
55.847 3 0.479701 0.597387 0.500432 -4.01256
55.847 3 0.475647 0.593311 0.000451258 -4.01249
55.847 3 0.47158 0.597345 0.500468 -4.01252
55.847 3 0.467533 0.593259 0.000484531 -4.01244
55.847 3 0.463467 0.597293 0.500498 -3.99988
55.847 3 0.459427 0.593197 0.000509817 -4.01182
55.847 3 0.45536 0.597231 0.50052 -3.85417
55.847 3 0.451329 0.593126 0.000526827 -3.9986
55.847 3 0.44726 0.597161 0.500535 -3.43241
55.847 3 0.443237 0.593048 0.000536206 -3.44434
55.847 3 0.581063 0.584752 0.000277667 -3.43195
55.847 3 0.577062 0.588883 0.500248 -3.12155
55.847 3 0.572988 0.584843 0.000237823 -3.85573
55.847 3 0.56898 0.58897 0.500212 -3.60337
55.847 3 0.56491 0.584934 0.000201343 -3.9997
55.847 3 0.560894 0.589053 0.500183 -3.99905
55.847 3 0.556827 0.585021 0.000171959 -4.01221
55.847 3 0.552801 0.58913 0.500163 -4.01231
55.847 3 0.548735 0.5851 0.00015327 -4.01229
55.847 3 0.5447 0.589198 0.500154 -4.01238
55.847 3 0.540635 0.585167 0.000147955 -4.0124
55.847 3 0.53659 0.589254 0.500159 -4.01246
55.847 3 0.532524 0.585222 0.000157227 -4.01226
55.847 3 0.528472 0.589297 0.500177 -4.01254
55.847 3 0.524406 0.585262 0.000180657 -4.01248
55.847 3 0.520348 0.589327 0.500206 -4.01242
55.845 1 0.516284 0.585289 0.000236998 -4.01254
55.847 3 0.51222 0.589344 0.500246 -4.01254
55.845 1 0.508156 0.5853 0.000278805 -4.01248
55.847 3 0.50409 0.589347 0.500291 -4.01256
55.845 1 0.500028 0.585296 0.000322325 -4.01247
55.847 3 0.495961 0.589337 0.50034 -4.01256
55.845 1 0.491901 0.585278 0.000366597 -4.01242
55.847 3 0.487834 0.589314 0.500388 -4.01263
55.847 3 0.483779 0.585244 0.000410283 -4.01243
55.847 3 0.479713 0.589277 0.500432 -4.01255
55.847 3 0.475664 0.585196 0.000452047 -4.01246
55.847 3 0.471599 0.589227 0.500469 -4.01242
55.847 3 0.467559 0.585135 0.000485031 -4.01248
55.847 3 0.463493 0.589165 0.500498 -4.01234
55.847 3 0.459463 0.585061 0.000508105 -4.01228
55.847 3 0.455396 0.589093 0.500518 -4.01229
55.847 3 0.451375 0.584978 0.000521536 -4.01219
55.847 3 0.447307 0.589012 0.500529 -3.9991
55.847 3 0.443295 0.584889 0.000526802 -3.99978
55.847 3 0.439223 0.588926 0.500533 -3.6034
55.847 3 0.435219 0.584797 0.000526131 -3.85604
55.847 3 0.431144 0.588839 0.500532 -3.12144
55.847 3 0.427144 0.584707 0.000521908 -3.43189
55.847 3 0.589046 0.576479 0.000346119 -3.44316
55.847 3 0.585058 0.580617 0.500311 -3.44328
55.847 3 0.580976 0.57657 0.000304193 -3.99948
55.847 3 0.576986 0.580709 0.500269 -3.99881
55.847 3 0.57291 0.576668 0.000259791 -4.01209
55.847 3 0.568915 0.580805 0.500227 -4.01159
55.847 3 0.564844 0.576769 0.000216017 -4.01206
55.847 3 0.560841 0.5809 0.50019 -4.0121
55.847 3 0.556774 0.576869 0.000177341 -4.01213
55.847 3 0.552761 0.58099 0.500161 -4.01217
55.847 3 0.548696 0.576962 0.000148869 -4.01192
55.847 3 0.544671 0.581071 0.500144 -4.01206
55.845 1 0.540609 0.577045 0.000170083 -4.01213
55.847 3 0.53657 0.581138 0.500143 -4.01228
55.845 1 0.53251 0.577111 0.000191781 -4.01213
55.845 1 0.528462 0.581191 0.500189 -4.01241
55.845 1 0.5244 0.577161 0.000226156 -4.0123
55.845 1 0.520344 0.581228 0.500227 -4.01233
55.845 1 0.516282 0.577193 0.000261604 -4.01234
55.845 1 0.51222 0.581249 0.500269 -4.01246
55.845 1 0.508158 0.577207 0.0002984 -4.01239
55.845 1 0.504094 0.581253 0.500309 -4.01245
55.845 1 0.500033 0.577203 0.000334961 -4.01239
55.845 1 0.495968 0.581241 0.500349 -4.01244
55.845 1 0.491911 0.577181 0.000371608 -4.01234
55.845 1 0.487845 0.581213 0.500389 -4.01236
55.845 1 0.483794 0.577141 0.000407823 -4.01232
55.845 1 0.479729 0.581168 0.500428 -4.01222
55.845 1 0.475687 0.577083 0.000443348 -4.01206
55.847 3 0.471623 0.581106 0.50047 -4.01225
55.845 1 0.467591 0.577008 0.000474427 -4.01187
55.847 3 0.463528 0.581032 0.500497 -4.01216
55.847 3 0.459509 0.576917 0.000504007 -4.01199
55.847 3 0.455443 0.580946 0.500513 -4.0122
55.847 3 0.451435 0.57682 0.000512555 -4.01239
55.847 3 0.447366 0.580853 0.50052 -4.01211
55.847 3 0.443368 0.576719 0.000513032 -4.01215
55.847 3 0.439294 0.580757 0.50052 -4.01164
55.847 3 0.435302 0.576619 0.000508681 -4.01213
55.847 3 0.431223 0.580662 0.500515 -3.99895
55.847 3 0.427235 0.576523 0.000502351 -3.99963
55.847 3 0.423151 0.580572 0.500509 -3.44324
55.847 3 0.419162 0.576436 0.000496047 -3.44313
55.847 3 0.597015 0.568205 0.000412815 -3.12075
55.847 3 0.593031 0.57234 0.500381 -3.43133
55.847 3 0.588939 0.568286 0.000377304 -3.99925
55.847 3 0.584959 0.572428 0.500341 -3.9997
55.847 3 0.580872 0.568379 0.000335882 -4.01213
55.847 3 0.576894 0.572525 0.500297 -4.0121
55.847 3 0.572813 0.568481 0.000289136 -4.01201
55.847 3 0.568834 0.572629 0.50025 -4.01202
55.847 3 0.564758 0.568591 0.000239316 -4.01179
55.847 3 0.560773 0.572736 0.500204 -4.01168
55.845 1 0.556707 0.568706 0.000216186 -4.01167
55.847 3 0.552707 0.572841 0.500164 -4.01188
55.845 1 0.548647 0.568816 0.000207969 -4.01148
55.845 1 0.544636 0.572938 0.500187 -4.0119
55.845 1 0.540577 0.568916 0.000220799 -4.01178
55.845 1 0.53655 0.57302 0.500205 -4.01206
55.845 1 0.532491 0.568998 0.00023818 -4.01199
55.845 1 0.52845 0.573085 0.500229 -4.01213
55.845 1 0.52439 0.569061 0.000261212 -4.01212
55.845 1 0.520339 0.573131 0.500259 -4.01226
55.845 1 0.516278 0.569101 0.000288516 -4.01221
55.845 1 0.51222 0.573157 0.500292 -4.01231
55.845 1 0.50816 0.569119 0.000317475 -4.01225
55.845 1 0.504098 0.573163 0.500324 -4.01234
55.845 1 0.50004 0.569115 0.000347324 -4.01227
55.845 1 0.495976 0.573149 0.500358 -4.01233
55.845 1 0.491922 0.569088 0.000377 -4.01221
55.845 1 0.487859 0.573115 0.500391 -4.01225
55.845 1 0.483813 0.569039 0.000406117 -4.01209
55.845 1 0.47975 0.57306 0.500423 -4.01212
55.845 1 0.475715 0.568968 0.000433716 -4.01197
55.845 1 0.471653 0.572987 0.500452 -4.01205
55.845 1 0.467633 0.568876 0.000458332 -4.01176
55.845 1 0.463571 0.572895 0.500479 -4.01173
55.845 1 0.459566 0.568767 0.000479464 -4.01129
55.847 3 0.455504 0.572789 0.500505 -4.01182
55.845 1 0.451509 0.568653 0.000490973 -4.01138
55.847 3 0.447441 0.572682 0.500506 -4.01167
55.847 3 0.44346 0.568535 0.000493968 -4.0118
55.847 3 0.439381 0.572576 0.500502 -4.01216
55.847 3 0.435404 0.568429 0.000486896 -4.01217
55.847 3 0.431319 0.572476 0.500495 -4.01216
55.847 3 0.427341 0.568331 0.000479947 -4.0122
55.847 3 0.423251 0.572383 0.500488 -3.99984
55.847 3 0.41927 0.568244 0.000474596 -3.99938
55.847 3 0.415175 0.5723 0.500483 -3.43129
55.847 3 0.411189 0.568167 0.000471348 -3.12066
55.847 3 0.596897 0.560012 0.000440155 -3.59455
55.847 3 0.592917 0.564147 0.500411 -3.85088
55.847 3 0.588818 0.56009 0.000408838 -4.0116
55.847 3 0.584845 0.564232 0.500374 -4.01219
55.847 3 0.58075 0.560179 0.000370682 -4.01211
55.847 3 0.576784 0.56433 0.50033 -4.01205
55.847 3 0.572695 0.560281 0.000324934 -4.01197
55.847 3 0.568731 0.564438 0.500281 -4.01186
55.845 1 0.564651 0.560397 0.000292868 -4.01162
55.845 1 0.560686 0.564556 0.500255 -4.01159
55.845 1 0.556615 0.560524 0.00027253 -4.01133
55.845 1 0.552642 0.564678 0.50024 -4.01151
55.845 1 0.548578 0.560654 0.000263736 -4.01125
55.845 1 0.544588 0.564794 0.50024 -4.01144
55.845 1 0.540529 0.560777 0.00026641 -4.0113
55.845 1 0.536519 0.564897 0.500251 -4.01168
55.845 1 0.532462 0.560881 0.000277148 -4.01155
55.845 1 0.528432 0.564978 0.500267 -4.0119
55.845 1 0.524375 0.560961 0.000293446 -4.01183
55.845 1 0.520331 0.565036 0.500289 -4.01206
55.845 1 0.516273 0.561012 0.0003135 -4.01197
55.845 1 0.512219 0.565069 0.500314 -4.01216
55.845 1 0.508161 0.561036 0.000336022 -4.01206
55.845 1 0.504102 0.565077 0.50034 -4.01217
55.845 1 0.500047 0.561031 0.000359529 -4.01206
55.845 1 0.495985 0.56506 0.500367 -4.01212
55.845 1 0.491936 0.560998 0.000382846 -4.01197
55.845 1 0.487875 0.565018 0.500393 -4.01204
55.845 1 0.483836 0.560937 0.000405691 -4.01177
55.845 1 0.479776 0.564951 0.500418 -4.01186
55.845 1 0.475752 0.560848 0.00042677 -4.01149
55.845 1 0.471693 0.56486 0.500441 -4.0116
55.845 1 0.467689 0.560734 0.000445074 -4.01119
55.845 1 0.463628 0.564749 0.500461 -4.01133
55.845 1 0.459642 0.560605 0.000458917 -4.01126
55.845 1 0.455576 0.564627 0.500474 -4.01162
55.845 1 0.451606 0.560471 0.000466751 -4.01137
55.845 1 0.447533 0.564501 0.50048 -4.01147
55.845 1 0.443569 0.560343 0.000467611 -4.01162
55.847 3 0.439489 0.564382 0.500478 -4.01186
55.847 3 0.435524 0.560228 0.000461676 -4.01198
55.847 3 0.431432 0.564279 0.500471 -4.0122
55.847 3 0.427462 0.560132 0.000456228 -4.01223
55.847 3 0.423365 0.564188 0.500466 -4.01225
55.847 3 0.419389 0.56005 0.000453527 -4.01167
55.847 3 0.415288 0.564109 0.500463 -3.85119
55.847 3 0.411304 0.559978 0.00045334 -3.59469
55.847 3 0.604868 0.551761 0.000484296 -3.43061
55.847 3 0.60088 0.555884 0.500465 -3.44313
55.847 3 0.596771 0.551821 0.000463466 -4.00051
55.847 3 0.592792 0.555952 0.500439 -4.00079
55.847 3 0.588685 0.551891 0.000437611 -4.01222
55.847 3 0.584717 0.556032 0.500407 -4.01217
55.847 3 0.580613 0.551974 0.000405122 -4.0121
55.847 3 0.576654 0.556125 0.500367 -4.01201
55.845 1 0.572555 0.552072 0.000367086 -4.01195
55.845 1 0.568605 0.556234 0.50033 -4.01178
55.845 1 0.564515 0.552188 0.000336229 -4.01156
55.845 1 0.560571 0.556358 0.500305 -4.01145
55.845 1 0.55649 0.552322 0.000316298 -4.01117
55.845 1 0.552545 0.556495 0.50029 -4.01107
55.845 1 0.548476 0.55247 0.000306184 -4.01068
55.845 1 0.544517 0.556635 0.500285 -4.01091
55.845 1 0.540457 0.552621 0.000304961 -4.01057
55.845 1 0.536473 0.556764 0.50029 -4.0111
55.845 1 0.532418 0.552755 0.000310844 -4.01087
55.845 1 0.528406 0.556869 0.500301 -4.01146
55.845 1 0.524352 0.552859 0.000321839 -4.01133
55.845 1 0.520319 0.556944 0.500316 -4.01176
55.845 1 0.516264 0.552927 0.000336423 -4.01165
55.845 1 0.512216 0.556987 0.500335 -4.0119
55.845 1 0.508161 0.552958 0.000353493 -4.0118
55.845 1 0.504106 0.556998 0.500355 -4.01195
55.845 1 0.500054 0.552953 0.000371572 -4.01179
55.845 1 0.495996 0.556977 0.500376 -4.01186
55.845 1 0.491953 0.552912 0.000389519 -4.01161
55.845 1 0.487895 0.556924 0.500396 -4.0117
55.845 1 0.483867 0.552833 0.000406862 -4.01123
55.845 1 0.479811 0.556839 0.500415 -4.01138
55.845 1 0.475806 0.552719 0.000422581 -4.01075
55.845 1 0.471748 0.556724 0.500432 -4.01101
55.845 1 0.46777 0.552576 0.000435672 -4.01049
55.845 1 0.463707 0.556588 0.500446 -4.01093
55.845 1 0.459752 0.55242 0.000445044 -4.01077
55.845 1 0.455679 0.556443 0.500455 -4.01112
55.845 1 0.451735 0.55227 0.00044973 -4.01132
55.845 1 0.447651 0.556305 0.500458 -4.01151
55.845 1 0.443706 0.552137 0.000448606 -4.01171
55.845 1 0.439613 0.556181 0.500455 -4.01178
55.845 1 0.43566 0.552024 0.00044054 -4.01194
55.847 3 0.431561 0.556077 0.500446 -4.01198
55.847 3 0.427598 0.551931 0.000433608 -4.01235
55.847 3 0.423492 0.55599 0.500444 -4.01224
55.847 3 0.419518 0.551855 0.00043496 -4.01229
55.847 3 0.41541 0.555917 0.500444 -4.00088
55.847 3 0.411427 0.55179 0.000438559 -4.00058
55.847 3 0.407317 0.555853 0.500447 -3.44311
55.847 3 0.403325 0.551734 0.000443707 -3.43061
55.847 3 0.608861 0.547645 0.500499 -3.12018
55.847 3 0.604745 0.543581 0.000496878 -3.85283
55.847 3 0.600755 0.547698 0.500483 -3.99999
55.847 3 0.59664 0.543634 0.000480598 -4.01232
55.847 3 0.592659 0.547759 0.500462 -4.01228
55.847 3 0.588544 0.543696 0.000460452 -4.01221
55.847 3 0.584575 0.54783 0.500436 -4.01215
55.847 3 0.580462 0.543769 0.000434874 -4.01207
55.847 3 0.576506 0.547916 0.500403 -4.01204
55.845 1 0.572395 0.543859 0.000396321 -4.01184
55.845 1 0.568454 0.548019 0.500367 -4.01175
55.845 1 0.564349 0.543967 0.000368346 -4.01158
55.845 1 0.560422 0.548143 0.500343 -4.01135
55.845 1 0.556327 0.544099 0.000349836 -4.01107
55.845 1 0.55241 0.548288 0.500328 -4.01082
55.845 1 0.548329 0.544258 0.000339409 -4.01037
55.845 1 0.544409 0.54845 0.500322 -4.01026
55.845 1 0.540344 0.544436 0.000336315 -4.00964
55.845 1 0.5364 0.548612 0.500323 -4.01016
55.845 1 0.532347 0.54461 0.000339176 -4.00966
55.845 1 0.528366 0.548751 0.500329 -4.01065
55.845 1 0.524316 0.544752 0.00034629 -4.01046
55.845 1 0.5203 0.548852 0.50034 -4.01123
55.845 1 0.51625 0.544846 0.00035678 -4.0111
55.845 1 0.51221 0.54891 0.500354 -4.01156
55.845 1 0.508159 0.544889 0.000369251 -4.01137
55.845 1 0.504109 0.548925 0.500369 -4.01166
55.845 1 0.500062 0.544884 0.000382776 -4.01135
55.845 1 0.496009 0.548899 0.500385 -4.01149
55.845 1 0.491974 0.544829 0.000396356 -4.01099
55.845 1 0.487922 0.54883 0.500401 -4.01112
55.845 1 0.483912 0.544723 0.000409272 -4.01021
55.845 1 0.47986 0.548718 0.500415 -4.01047
55.845 1 0.475888 0.544569 0.000420524 -4.00952
55.845 1 0.471831 0.548569 0.500427 -4.01003
55.845 1 0.467894 0.544387 0.000429722 -4.00985
55.845 1 0.463824 0.548401 0.500437 -4.01041
55.845 1 0.459905 0.544209 0.000435916 -4.01063
55.845 1 0.45582 0.548238 0.500442 -4.01105
55.845 1 0.4519 0.544053 0.00043861 -4.01129
55.845 1 0.447801 0.548094 0.500444 -4.01154
55.845 1 0.443869 0.543923 0.000436657 -4.01177
55.845 1 0.439763 0.547973 0.500438 -4.01192
55.845 1 0.435817 0.543816 0.000428388 -4.01185
55.847 3 0.431706 0.547871 0.500423 -4.01215
55.847 3 0.427744 0.543731 0.000414989 -4.01215
55.847 3 0.423629 0.547793 0.500425 -4.01225
55.847 3 0.419654 0.543664 0.000421034 -4.01229
55.847 3 0.415539 0.547727 0.50043 -4.01233
55.847 3 0.411554 0.543607 0.000428488 -4.01237
55.847 3 0.407438 0.547671 0.500436 -4.00006
55.847 3 0.403444 0.543558 0.000436713 -3.85303
55.847 3 0.399328 0.547622 0.500443 -3.12012
55.847 3 0.612743 0.535368 0.000513638 -3.11993
55.847 3 0.608741 0.539472 0.500507 -3.58323
55.847 3 0.60462 0.535408 0.000502823 -4.00069
55.847 3 0.600626 0.539517 0.500494 -4.0118
55.847 3 0.596504 0.535454 0.000490164 -4.01231
55.847 3 0.59252 0.539571 0.500478 -4.01225
55.847 3 0.588397 0.535507 0.000474912 -4.01216
55.847 3 0.584425 0.539633 0.500458 -4.01211
55.845 1 0.5803 0.535571 0.000443712 -4.01211
55.845 1 0.576343 0.539709 0.500422 -4.01199
55.845 1 0.572219 0.535648 0.000414151 -4.01186
55.845 1 0.56828 0.539801 0.500392 -4.01173
55.845 1 0.564159 0.535744 0.000390853 -4.01159
55.845 1 0.56024 0.539915 0.500371 -4.01136
55.845 1 0.556127 0.535864 0.000374731 -4.01111
55.845 1 0.55223 0.540058 0.500357 -4.01074
55.845 1 0.54813 0.536018 0.000365123 -4.01032
55.845 1 0.544248 0.540232 0.500351 -4.0098
55.845 1 0.540168 0.53621 0.000361333 -4.00908
55.845 1 0.536281 0.540428 0.50035 -4.00879
55.845 1 0.532223 0.536427 0.000362329 -4.00768
55.845 1 0.528297 0.540614 0.500354 -4.00906
55.845 1 0.524252 0.536627 0.000366692 -4.00837
55.845 1 0.520269 0.540757 0.500361 -4.01024
55.845 1 0.516225 0.536767 0.000373713 -4.01004
55.845 1 0.512201 0.54084 0.500371 -4.01092
55.845 1 0.508155 0.536832 0.000382689 -4.01071
55.845 1 0.504112 0.540863 0.500382 -4.01115
55.845 1 0.500071 0.536825 0.000392582 -4.01064
55.845 1 0.496024 0.540828 0.500394 -4.01083
55.845 1 0.492006 0.536745 0.000402556 -4.00975
55.845 1 0.487961 0.540732 0.500405 -4.00997
55.845 1 0.483989 0.53659 0.000412008 -4.00791
55.845 1 0.479941 0.540575 0.500416 -4.0088
55.845 1 0.476027 0.536378 0.000420078 -4.0078
55.845 1 0.471963 0.540379 0.500424 -4.00897
55.845 1 0.46808 0.536161 0.000426382 -4.00955
55.845 1 0.463992 0.540183 0.500431 -4.01015
55.845 1 0.460107 0.535975 0.000430417 -4.01074
55.845 1 0.456001 0.540013 0.500434 -4.01104
55.845 1 0.452098 0.535826 0.000431946 -4.0114
55.845 1 0.447981 0.539874 0.500434 -4.01162
55.845 1 0.444055 0.535708 0.00043039 -4.01175
55.845 1 0.439933 0.539762 0.50043 -4.01188
55.845 1 0.435986 0.535614 0.000425505 -4.01202
55.845 1 0.431862 0.539672 0.500422 -4.01214
55.845 1 0.427898 0.535539 0.000418386 -4.01222
55.847 3 0.423774 0.5396 0.500412 -4.01218
55.847 3 0.419795 0.535479 0.000413422 -4.01222
55.847 3 0.415673 0.539543 0.500421 -4.01232
55.847 3 0.411684 0.53543 0.000424118 -4.01236
55.847 3 0.407562 0.539494 0.50043 -4.01184
55.847 3 0.403564 0.535387 0.000434752 -4.00072
55.847 3 0.399444 0.539451 0.50044 -3.58344
55.847 3 0.395439 0.535349 0.000445118 -3.1199
55.847 3 0.612626 0.527207 0.000511417 -3.28707
55.847 3 0.60862 0.531305 0.500508 -3.84174
55.847 3 0.604494 0.527242 0.000502179 -4.01123
55.847 3 0.600495 0.531345 0.500498 -4.01236
55.847 3 0.596367 0.527282 0.000491802 -4.01228
55.847 3 0.592378 0.53139 0.500486 -4.01217
55.847 3 0.588247 0.527327 0.000479867 -4.01222
55.845 1 0.584268 0.531444 0.500462 -4.01226
55.845 1 0.580134 0.527382 0.000448325 -4.012
55.845 1 0.576171 0.531509 0.500433 -4.01194
55.845 1 0.572034 0.527447 0.000424693 -4.01182
55.845 1 0.56809 0.531588 0.500409 -4.01171
55.845 1 0.563953 0.527527 0.000405949 -4.01154
55.845 1 0.560032 0.531686 0.500391 -4.01137
55.845 1 0.555898 0.527629 0.000392526 -4.01113
55.845 1 0.552007 0.531814 0.500379 -4.01081
55.845 1 0.547881 0.527763 0.000384457 -4.01041
55.845 1 0.544025 0.531981 0.500373 -4.00977
55.845 1 0.539916 0.527945 0.000380811 -4.0091
55.845 1 0.536088 0.532194 0.500371 -4.00796
55.845 1 0.532008 0.528184 0.000380638 -4.0065
55.845 1 0.528171 0.532437 0.500373 -4.00608
55.845 1 0.524125 0.528459 0.000383026 -4.00379
55.845 1 0.520212 0.532649 0.500378 -4.00775
55.845 1 0.516176 0.528681 0.000387419 -4.00724
55.845 1 0.512183 0.532779 0.500385 -4.00982
55.845 1 0.508145 0.528789 0.000393368 -4.00955
55.845 1 0.504114 0.532816 0.500392 -4.0103
55.845 1 0.500085 0.52878 0.0004001 -4.0093
55.845 1 0.496048 0.532763 0.500401 -4.00954
55.845 1 0.492066 0.528649 0.0004073 -4.00603
55.845 1 0.488031 0.532614 0.500409 -4.00697
55.845 1 0.48414 0.528405 0.000414201 -4.00348
55.845 1 0.480087 0.532386 0.500417 -4.0061
55.845 1 0.476259 0.528128 0.000419988 -4.00757
55.845 1 0.472169 0.532142 0.500423 -4.00872
55.845 1 0.468335 0.527902 0.000424475 -4.00971
55.845 1 0.464218 0.531938 0.500427 -4.01027
55.845 1 0.460352 0.527731 0.000427277 -4.01074
55.845 1 0.456221 0.531778 0.500429 -4.01108
55.845 1 0.452322 0.527601 0.000428398 -4.01135
55.845 1 0.448184 0.531654 0.50043 -4.01157
55.845 1 0.444256 0.527501 0.000427819 -4.01172
55.845 1 0.440117 0.531557 0.500427 -4.01192
55.845 1 0.436165 0.527421 0.00042561 -4.01202
55.845 1 0.432028 0.531479 0.500423 -4.01212
55.845 1 0.428058 0.527357 0.000421657 -4.01216
55.845 1 0.423923 0.531417 0.500417 -4.01235
55.847 3 0.419939 0.527304 0.000412931 -4.01228
55.847 3 0.415809 0.531367 0.500418 -4.01225
55.847 3 0.411815 0.527262 0.000425751 -4.01234
55.847 3 0.407688 0.531324 0.50043 -4.01241
55.847 3 0.403686 0.527224 0.000437839 -4.01127
55.847 3 0.399561 0.531286 0.500441 -3.84191
55.847 3 0.395551 0.527191 0.000449197 -3.28719
55.847 3 0.612509 0.519054 0.000504475 -3.58412
55.847 3 0.608498 0.523146 0.500504 -3.85468
55.847 3 0.604367 0.519086 0.000495728 -4.01186
55.847 3 0.600363 0.523181 0.500495 -4.01235
55.847 3 0.596229 0.519121 0.000486216 -4.01219
55.847 3 0.592234 0.52322 0.500485 -4.01217
55.845 1 0.588094 0.51916 0.000469456 -4.01232
55.845 1 0.584109 0.523266 0.500461 -4.01216
55.845 1 0.579965 0.519206 0.000448518 -4.01202
55.845 1 0.575993 0.523321 0.500438 -4.01193
55.845 1 0.571845 0.519261 0.000430133 -4.01177
55.845 1 0.567891 0.523386 0.500419 -4.01169
55.845 1 0.563739 0.519326 0.000415515 -4.01149
55.845 1 0.559808 0.523467 0.500405 -4.01133
55.845 1 0.555652 0.519407 0.000405012 -4.01106
55.845 1 0.551754 0.523571 0.500395 -4.01082
55.845 1 0.547597 0.519513 0.000398511 -4.01046
55.845 1 0.543744 0.523713 0.50039 -4.00991
55.845 1 0.539594 0.519663 0.000395203 -4.00925
55.845 1 0.535799 0.523911 0.500388 -4.00816
55.845 1 0.531672 0.519881 0.000394367 -4.00687
55.845 1 0.527929 0.524184 0.500389 -4.00431
55.845 1 0.52385 0.520196 0.000395468 -4.00097
55.845 1 0.520087 0.524499 0.500391 -4.00047
55.845 1 0.516061 0.52056 0.000397601 -3.99569
55.845 1 0.512145 0.524722 0.500395 -4.00714
55.845 1 0.508121 0.520764 0.000401023 -4.00722
55.845 1 0.504114 0.524788 0.5004 -4.00901
55.845 1 0.500113 0.520746 0.000405329 -4.0053
55.845 1 0.496095 0.524695 0.500406 -4.00552
55.845 1 0.492214 0.520496 0.000410352 -3.99232
55.845 1 0.488184 0.52444 0.500412 -3.99931
55.845 1 0.484449 0.52012 0.000415302 -4.00363
55.845 1 0.480352 0.52412 0.500418 -4.00599
55.845 1 0.476597 0.519834 0.000419456 -4.00814
55.845 1 0.47246 0.523867 0.500422 -4.00901
55.845 1 0.468647 0.519636 0.000422812 -4.00974
55.845 1 0.464493 0.523683 0.500425 -4.01032
55.845 1 0.460626 0.519495 0.000425118 -4.01069
55.845 1 0.456468 0.523548 0.500427 -4.01107
55.845 1 0.452561 0.519391 0.000426219 -4.01126
55.845 1 0.448403 0.523446 0.500427 -4.01154
55.845 1 0.444466 0.51931 0.00042696 -4.01163
55.845 1 0.440311 0.523365 0.500427 -4.01182
55.845 1 0.436351 0.519244 0.000427221 -4.01189
55.845 1 0.4322 0.523299 0.500425 -4.01213
55.845 1 0.428222 0.519188 0.000426641 -4.01227
55.845 1 0.424077 0.523245 0.500422 -4.01232
55.845 1 0.420086 0.519141 0.000426656 -4.0125
55.847 3 0.415947 0.5232 0.500422 -4.01218
55.847 3 0.411948 0.519103 0.000432929 -4.01221
55.847 3 0.407815 0.523163 0.500435 -4.0124
55.847 3 0.403808 0.519069 0.000445443 -4.0119
55.847 3 0.399678 0.52313 0.500447 -3.85479
55.847 3 0.395664 0.519039 0.00045699 -3.5843
55.847 3 0.616524 0.514967 0.500504 -3.1197
55.847 3 0.612391 0.510909 0.000493993 -3.84295
55.847 3 0.608376 0.514995 0.500495 -4.0009
55.847 3 0.60424 0.510938 0.000484856 -4.01239
55.847 3 0.600231 0.515027 0.500486 -4.01234
55.847 3 0.596091 0.51097 0.000475022 -4.01213
55.847 3 0.592089 0.515062 0.500476 -4.01225
55.845 1 0.587942 0.511006 0.000460647 -4.01233
55.845 1 0.583948 0.515102 0.500456 -4.01206
55.845 1 0.579796 0.511046 0.000444861 -4.01201
55.845 1 0.575814 0.515148 0.500439 -4.01188
55.845 1 0.571655 0.511093 0.000431605 -4.01176
55.845 1 0.567689 0.515202 0.500424 -4.01161
55.845 1 0.563522 0.511147 0.000420999 -4.0114
55.845 1 0.559576 0.515267 0.500414 -4.01123
55.845 1 0.555401 0.511211 0.000413323 -4.01093
55.845 1 0.551484 0.515348 0.500406 -4.0107
55.845 1 0.547299 0.511292 0.000408235 -4.01024
55.845 1 0.543425 0.515457 0.500402 -4.00993
55.845 1 0.539232 0.511402 0.000405619 -4.00919
55.845 1 0.535426 0.515613 0.5004 -4.00847
55.845 1 0.531231 0.511566 0.000404496 -4.00734
55.845 1 0.527528 0.515855 0.5004 -4.00515
55.845 1 0.523359 0.511834 0.000404361 -4.00261
55.845 1 0.519771 0.516226 0.500401 -3.99551
55.845 1 0.515691 0.512282 0.000404467 -3.98585
55.845 1 0.512049 0.516647 0.500402 -3.98907
55.845 1 0.508066 0.512755 0.00040544 -3.97434
55.845 1 0.504113 0.516788 0.500405 -4.01122
55.845 1 0.500188 0.512692 0.000407736 -3.9549
55.845 1 0.496222 0.51658 0.500409 -3.98065
55.845 1 0.492667 0.512151 0.000410975 -3.99071
55.845 1 0.488553 0.516129 0.500413 -3.9997
55.845 1 0.484938 0.511772 0.00041481 -4.00569
55.845 1 0.480753 0.515802 0.500417 -4.00706
55.845 1 0.477012 0.511546 0.000417789 -4.00793
55.845 1 0.472817 0.51559 0.50042 -4.00901
55.845 1 0.468991 0.511393 0.000420493 -4.00949
55.845 1 0.464799 0.515443 0.500423 -4.01018
55.845 1 0.460915 0.511286 0.00042279 -4.01051
55.845 1 0.45673 0.515337 0.500425 -4.01092
55.845 1 0.452807 0.511205 0.000424514 -4.0111
55.845 1 0.44863 0.515256 0.500426 -4.01138
55.845 1 0.444679 0.51114 0.000426582 -4.01153
55.845 1 0.44051 0.515191 0.500427 -4.01173
55.845 1 0.436539 0.511085 0.000429113 -4.0118
55.845 1 0.432377 0.515136 0.500429 -4.01194
55.845 1 0.42839 0.511038 0.000432131 -4.01188
55.845 1 0.424233 0.515086 0.50043 -4.01241
55.845 1 0.420233 0.510991 0.000436198 -4.01313
55.847 3 0.416085 0.515044 0.500432 -4.01217
55.847 3 0.41208 0.510954 0.000444479 -4.01211
55.847 3 0.407942 0.515011 0.500445 -4.01239
55.847 3 0.403929 0.510924 0.000456533 -4.01249
55.847 3 0.399795 0.514981 0.500456 -4.00092
55.847 3 0.395777 0.510896 0.000467605 -3.84307
55.847 3 0.391646 0.514953 0.500467 -3.11969
55.847 3 0.616411 0.506827 0.500492 -3.28772
55.847 3 0.612274 0.502773 0.000481432 -3.84386
55.847 3 0.608255 0.506854 0.500483 -4.01132
55.847 3 0.604113 0.502801 0.000471371 -4.01238
55.847 3 0.600099 0.506883 0.500473 -4.01233
55.847 3 0.595953 0.502831 0.000460478 -4.0121
55.847 3 0.591945 0.506916 0.500463 -4.01225
55.845 1 0.58779 0.502865 0.000449176 -4.0123
55.845 1 0.583789 0.506952 0.500448 -4.01204
55.845 1 0.579627 0.502903 0.000439222 -4.01196
55.845 1 0.575635 0.506994 0.500437 -4.01185
55.845 1 0.571466 0.502945 0.000430362 -4.0117
55.845 1 0.567486 0.507041 0.500426 -4.01155
55.845 1 0.563306 0.502994 0.000423422 -4.01131
55.845 1 0.559344 0.507095 0.500419 -4.01115
55.845 1 0.555151 0.503049 0.000418371 -4.01077
55.845 1 0.55121 0.50716 0.500414 -4.01053
55.845 1 0.547 0.503115 0.000414805 -4.00994
55.845 1 0.543093 0.507241 0.500411 -4.00958
55.845 1 0.53886 0.503198 0.000412673 -4.00861
55.845 1 0.535009 0.507352 0.500409 -4.00813
55.845 1 0.530746 0.503312 0.000411003 -4.00645
55.845 1 0.526996 0.507523 0.500408 -4.00563
55.845 1 0.522696 0.503491 0.00040978 -4.00388
55.845 1 0.519144 0.507824 0.500407 -3.99774
55.845 1 0.514853 0.503832 0.000408184 -3.98863
55.845 1 0.511609 0.508377 0.500407 -3.95537
55.845 1 0.507567 0.50448 0.00040714 -3.90915
55.845 1 0.504123 0.508888 0.500407 -3.88561
55.845 1 0.500889 0.504232 0.000405088 -4.18026
55.845 1 0.496792 0.508192 0.500409 -3.95443
55.845 1 0.493507 0.503701 0.0004094 -4.00191
55.845 1 0.489174 0.507743 0.500412 -4.00404
55.845 1 0.485523 0.503485 0.000412084 -4.00276
55.845 1 0.481242 0.507508 0.500415 -4.00619
55.845 1 0.477461 0.503316 0.000414429 -4.00711
55.845 1 0.473208 0.507349 0.500418 -4.00853
55.845 1 0.469348 0.5032 0.000416573 -4.00906
55.845 1 0.465119 0.507238 0.50042 -4.00989
55.845 1 0.461208 0.503116 0.000418877 -4.01014
55.845 1 0.456998 0.507157 0.500422 -4.0107
55.845 1 0.453054 0.50305 0.000421539 -4.01087
55.845 1 0.44886 0.507092 0.500425 -4.01123
55.845 1 0.444893 0.502994 0.00042534 -4.01139
55.845 1 0.440711 0.507037 0.500428 -4.01163
55.845 1 0.436727 0.502946 0.000430649 -4.01174
55.845 1 0.432555 0.50699 0.500432 -4.0119
55.845 1 0.428559 0.502903 0.000436885 -4.01214
55.845 1 0.424394 0.506948 0.500437 -4.01175
55.845 1 0.420389 0.502865 0.000443626 -4.01207
55.847 3 0.416223 0.506899 0.500445 -4.01389
55.847 3 0.412212 0.502816 0.000458639 -4.00893
55.847 3 0.408068 0.506868 0.500457 -4.01441
55.847 3 0.404051 0.502787 0.000469679 -4.01026
55.847 3 0.399912 0.50684 0.500468 -4.01324
55.847 3 0.39589 0.50276 0.000479864 -3.84177
55.847 3 0.391755 0.506814 0.500479 -3.28971
55.847 3 0.616298 0.498695 0.50048 -3.28818
55.847 3 0.612157 0.494645 0.000468388 -3.84429
55.847 3 0.608133 0.498722 0.50047 -4.01133
55.847 3 0.603987 0.494673 0.000457282 -4.01237
55.847 3 0.599967 0.498751 0.500459 -4.01232
55.847 3 0.595815 0.494704 0.000445163 -4.01209
55.847 3 0.591801 0.498782 0.500447 -4.01224
55.845 1 0.587639 0.494739 0.00043671 -4.01228
55.845 1 0.583629 0.498818 0.500439 -4.01202
55.845 1 0.57946 0.494777 0.000432116 -4.01192
55.845 1 0.575458 0.498858 0.500432 -4.01181
55.845 1 0.571278 0.49482 0.000427593 -4.01164
55.845 1 0.567285 0.498903 0.500426 -4.01148
55.845 1 0.563093 0.494868 0.000424131 -4.01124
55.845 1 0.559113 0.498954 0.500422 -4.01101