ITEM: TIMESTEP
0
ITEM: NUMBER OF ATOMS
         632
ITEM: BOX BOUNDS pp pp pp
  0.0000000E+00   1000.00000000000     
  0.0000000E+00   100.000000000000     
  0.0000000E+00   100.000000000000     
ITEM: ATOMS x y z f1 f2 f3 f4 orient radius rate_mig rate_rot rate_emit
       336.399714       21.750467       57.722305     1     6     0     0     3   1.558 0.000E+00 0.000E+00 0.551E-03
       740.764037       51.704344       41.117636     1     5     0     0     2   1.558 0.000E+00 0.000E+00 0.267E-05
       868.041301       27.785749       34.469003     1     5     0     0     1   1.558 0.000E+00 0.000E+00 0.267E-05
        72.020091       68.587479       67.723850     1     5     0     0     6   1.558 0.000E+00 0.000E+00 0.267E-05
       754.145845       25.132937       44.240510     1     5     0     0     8   1.558 0.000E+00 0.000E+00 0.267E-05
       875.465403       34.259010       87.947045     1     4     0     0     1   1.558 0.000E+00 0.000E+00 0.349E-07
       414.173215       50.636963       90.600934     1     5     0     0     2   1.558 0.000E+00 0.000E+00 0.267E-05
        69.971937       26.447109        1.929283     1     6     0     0     1   1.558 0.000E+00 0.000E+00 0.551E-03
       675.728987        7.582152       43.977936     1     5     0     0     1   1.558 0.000E+00 0.000E+00 0.267E-05
       140.861141       51.651656       94.613327     1     5     0     0     3   1.558 0.000E+00 0.000E+00 0.267E-05
       184.436908       42.970309       29.462031     1     5     0     0     2   1.558 0.000E+00 0.000E+00 0.267E-05
       882.718540       53.533904       49.526118     1     5     0     0     2   1.558 0.000E+00 0.000E+00 0.267E-05
       764.829976       96.458517        3.232148     1     6     0     0     4   1.558 0.000E+00 0.000E+00 0.551E-03
       704.708080       33.987370       73.146822     1     5     0     0     2   1.558 0.000E+00 0.000E+00 0.267E-05
       302.479442       27.616224       21.583147     1     5     0     0     5   1.558 0.000E+00 0.000E+00 0.267E-05
       847.668202       21.735094       86.739563     1     4     0     0     8   1.558 0.000E+00 0.000E+00 0.349E-07
       310.069636        4.745898       55.340097     1     5     0     0     1   1.558 0.000E+00 0.000E+00 0.267E-05
       669.085051       11.290228       38.706244     1     5     0     0     4   1.558 0.000E+00 0.000E+00 0.267E-05
        38.102774        7.226032       92.331934     1     5     0     0     3   1.558 0.000E+00 0.000E+00 0.267E-05
       960.650973       79.733037       30.274002     1     5     0     0     6   1.558 0.000E+00 0.000E+00 0.267E-05
       260.362564       50.961301       30.919241     1     5     0     0     4   1.558 0.000E+00 0.000E+00 0.267E-05
        27.099653       33.608753       16.466736     1     5     0     0     4   1.558 0.000E+00 0.000E+00 0.267E-05
       845.612298       20.705601        6.806934     1     5     0     0     7   1.558 0.000E+00 0.000E+00 0.267E-05
       978.922394       53.569819       24.802343     1     5     0     0     5   1.558 0.000E+00 0.000E+00 0.267E-05
       357.480761       14.331348       83.954894     1     4     0     0     4   1.558 0.000E+00 0.000E+00 0.349E-07
       815.797162       50.343339       67.204268     1     5     0     0     7   1.558 0.000E+00 0.000E+00 0.267E-05
       189.966422       59.634376       71.721673     1     5     0     0     8   1.558 0.000E+00 0.000E+00 0.267E-05
       316.594213       10.972889       66.290765     1     5     0     0     7   1.558 0.000E+00 0.000E+00 0.267E-05
       260.982023       32.308488       59.401639     1     5     0     0     4   1.558 0.000E+00 0.000E+00 0.267E-05
       359.922488        4.998394       15.696446     1     5     0     0     7   1.558 0.000E+00 0.000E+00 0.267E-05
       898.499163       36.864438       31.266923     1     5     0     0     4   1.558 0.000E+00 0.000E+00 0.267E-05
       146.056379       28.975906       17.353973     1     5     0     0     7   1.558 0.000E+00 0.000E+00 0.267E-05
       723.009534       47.451905       56.403027     1     5     0     0     5   1.558 0.000E+00 0.000E+00 0.267E-05
       315.401989       54.714951       58.532618     1     4     0     0     1   1.558 0.000E+00 0.000E+00 0.349E-07
       758.116489       59.704787       41.504160     1     5     0     0     8   1.558 0.000E+00 0.000E+00 0.267E-05
       845.930801       57.186756       74.333184     1     5     0     0     3   1.558 0.000E+00 0.000E+00 0.267E-05
       716.986998       83.478625       70.384070     1     5     0     0     4   1.558 0.000E+00 0.000E+00 0.267E-05
       668.606431       55.669499       40.245890     1     5     0     0     2   1.558 0.000E+00 0.000E+00 0.267E-05
       427.797329       10.968669       65.015354     1     5     0     0     4   1.558 0.000E+00 0.000E+00 0.267E-05
       547.196826       86.327700       95.529524     1     5     0     0     5   1.558 0.000E+00 0.000E+00 0.267E-05
       659.295954        2.568344       54.770583     1     4     0     0     6   1.558 0.000E+00 0.000E+00 0.349E-07
        50.774467       73.076819       94.179817     1     5     0     0     1   1.558 0.000E+00 0.000E+00 0.267E-05
       429.189109       55.102986       63.375495     1     5     0     0     2   1.558 0.000E+00 0.000E+00 0.267E-05
       443.660219       11.900224       18.665634     1     5     0     0     7   1.558 0.000E+00 0.000E+00 0.267E-05
        42.357305       50.960883       51.304966     1     5     0     0     6   1.558 0.000E+00 0.000E+00 0.267E-05
       866.729364       78.890488        7.158723     1     5     0     0     3   1.558 0.000E+00 0.000E+00 0.267E-05
       973.611401       86.138406       54.258467     1     5     0     0     3   1.558 0.000E+00 0.000E+00 0.267E-05
       555.011770       22.001195       16.243169     1     5     0     0     7   1.558 0.000E+00 0.000E+00 0.267E-05
       482.390066       83.416092       84.897031     1     5     0     0     2   1.558 0.000E+00 0.000E+00 0.267E-05
       781.185708       50.665537       68.214306     1     5     0     0     4   1.558 0.000E+00 0.000E+00 0.267E-05
       922.655889       35.589591       13.188429     1     5     0     0     2   1.558 0.000E+00 0.000E+00 0.267E-05
       475.744271       14.184485       33.545212     1     5     0     0     5   1.558 0.000E+00 0.000E+00 0.267E-05
       896.718034       37.482561       83.093908     1     5     0     0     2   1.558 0.000E+00 0.000E+00 0.267E-05
        17.289784       71.485021       53.914001     1     5     0     0     1   1.558 0.000E+00 0.000E+00 0.267E-05
       969.925709       21.070898       61.571810     1     4     0     0     3   1.558 0.000E+00 0.000E+00 0.349E-07
       505.423053       56.899015       25.572578     1     6     0     0     7   1.558 0.000E+00 0.000E+00 0.551E-03
       601.570960       21.552802        3.423636     1     5     0     0     7   1.558 0.000E+00 0.000E+00 0.267E-05
       828.694258       18.173712       38.933708     1     5     0     0     6   1.558 0.000E+00 0.000E+00 0.267E-05
       517.697932       50.182621       67.154203     1     5     0     0     3   1.558 0.000E+00 0.000E+00 0.267E-05
       609.558933       72.998512       56.932913     1     5     0     0     5   1.558 0.000E+00 0.000E+00 0.267E-05
         4.181066       17.013393       85.600397     1     5     0     0     7   1.558 0.000E+00 0.000E+00 0.267E-05
       532.923569        3.080780       11.636724     1     5     0     0     5   1.558 0.000E+00 0.000E+00 0.267E-05
        47.823588       86.429571       55.863600     1     5     0     0     2   1.558 0.000E+00 0.000E+00 0.267E-05
       340.578279       63.884689       34.518839     1     5     0     0     4   1.558 0.000E+00 0.000E+00 0.267E-05
       362.552231       85.021348       29.524170     1     5     0     0     1   1.558 0.000E+00 0.000E+00 0.267E-05
       861.906373       68.421392       11.974288     1     5     0     0     5   1.558 0.000E+00 0.000E+00 0.267E-05
       525.660749       90.208703       15.933112     1     5     0     0     4   1.558 0.000E+00 0.000E+00 0.267E-05
       144.979700       17.264476       81.588996     1     4     1     0     4   1.558 0.000E+00 0.000E+00 0.267E-05
       901.616843       80.882179       15.293033     1     5     0     0     1   1.558 0.000E+00 0.000E+00 0.267E-05
       226.502988       34.014745       56.894644     1     5     0     0     6   1.558 0.000E+00 0.000E+00 0.267E-05
       713.136152       18.173949       87.315276     1     4     0     0     1   1.558 0.000E+00 0.000E+00 0.349E-07
       903.470484       38.372610        7.734866     1     5     0     0     1   1.558 0.000E+00 0.000E+00 0.267E-05
       767.819886       61.015788       27.156097     1     5     0     0     5   1.558 0.000E+00 0.000E+00 0.267E-05
       889.692533        1.768161       92.386263     1     5     0     0     7   1.558 0.000E+00 0.000E+00 0.267E-05
       493.127312       80.860495       79.944417     1     5     0     0     7   1.558 0.000E+00 0.000E+00 0.267E-05
       573.366120       59.832871       14.087460     1     5     0     0     4   1.558 0.000E+00 0.000E+00 0.267E-05
        85.323813       21.680567       20.479581     1     4     0     0     2   1.558 0.000E+00 0.000E+00 0.349E-07
       141.834473       41.759309       64.873190     1     5     0     0     4   1.558 0.000E+00 0.000E+00 0.267E-05
       584.096000       90.693676       67.537975     1     5     0     0     5   1.558 0.000E+00 0.000E+00 0.267E-05
       872.063683        4.216141       17.529163     1     5     0     0     5   1.558 0.000E+00 0.000E+00 0.267E-05
       914.101409       22.592888       27.213991     1     4     0     0     8   1.558 0.000E+00 0.000E+00 0.349E-07
        66.938838       61.279542        7.207993     1     5     0     0     1   1.558 0.000E+00 0.000E+00 0.267E-05
       378.704663       67.121473       46.962341     1     5     0     0     8   1.558 0.000E+00 0.000E+00 0.267E-05
       927.597194       75.108224       18.039131     1     5     0     0     6   1.558 0.000E+00 0.000E+00 0.267E-05
        26.564567       96.742618       89.391598     1     5     0     0     2   1.558 0.000E+00 0.000E+00 0.267E-05
       162.231571       83.381078       58.461975     1     5     0     0     3   1.558 0.000E+00 0.000E+00 0.267E-05
       832.324693       84.103536       53.568941     1     5     0     0     2   1.558 0.000E+00 0.000E+00 0.267E-05
       154.077662       42.651703       27.451537     1     5     0     0     1   1.558 0.000E+00 0.000E+00 0.267E-05
       417.620389       77.414610       89.427876     1     5     0     0     8   1.558 0.000E+00 0.000E+00 0.267E-05
       761.534982       14.411889       24.032347     1     5     0     0     6   1.558 0.000E+00 0.000E+00 0.267E-05
       131.204507       67.868660       47.676353     1     5     0     0     5   1.558 0.000E+00 0.000E+00 0.267E-05
       653.063021       88.026922       70.186592     1     5     0     0     2   1.558 0.000E+00 0.000E+00 0.267E-05
       840.992229       20.933308       80.625513     1     5     0     0     5   1.558 0.000E+00 0.000E+00 0.267E-05
       977.357020       75.532425        1.653877     1     4     0     0     7   1.558 0.000E+00 0.000E+00 0.349E-07
       494.987399       55.385996       70.400924     1     5     0     0     2   1.558 0.000E+00 0.000E+00 0.267E-05
        17.638745       35.073738       57.303211     1     5     0     0     2   1.558 0.000E+00 0.000E+00 0.267E-05
        18.476023       31.148196       92.177955     1     5     0     0     6   1.558 0.000E+00 0.000E+00 0.267E-05
       194.506808       75.857490        2.847329     1     6     0     0     5   1.558 0.000E+00 0.000E+00 0.551E-03
       939.048493       12.854794       55.402694     1     5     0     0     8   1.558 0.000E+00 0.000E+00 0.267E-05
        50.816486       63.437191       91.017947     1     4     0     0     8   1.558 0.000E+00 0.000E+00 0.349E-07
       698.819023       36.631656       32.754748     1     5     0     0     1   1.558 0.000E+00 0.000E+00 0.267E-05
       383.812892        7.431443       82.144828     1     5     0     0     7   1.558 0.000E+00 0.000E+00 0.267E-05
        40.457038       16.868183       29.860338     1     5     0     0     8   1.558 0.000E+00 0.000E+00 0.267E-05
       343.422235       88.087814       16.953672     1     5     0     0     3   1.558 0.000E+00 0.000E+00 0.267E-05
       480.111897       96.558025       64.214509     1     5     0     0     4   1.558 0.000E+00 0.000E+00 0.267E-05
       839.422815       21.536584       77.976364     1     5     0     0     2   1.558 0.000E+00 0.000E+00 0.267E-05
       979.628815       97.638523        4.230997     1     5     0     0     6   1.558 0.000E+00 0.000E+00 0.267E-05
       541.909362       67.503032        9.159083     1     5     0     0     7   1.558 0.000E+00 0.000E+00 0.267E-05
       587.310091       92.561562       10.007995     1     5     0     0     1   1.558 0.000E+00 0.000E+00 0.267E-05
       762.138746       24.163487       93.124779     1     5     0     0     2   1.558 0.000E+00 0.000E+00 0.267E-05
       296.446833       76.825906        1.594196     1     5     0     0     5   1.558 0.000E+00 0.000E+00 0.267E-05
       580.794019       91.658298        2.469084     1     5     0     0     3   1.558 0.000E+00 0.000E+00 0.267E-05
       882.373156       59.267855       48.678558     1     5     0     0     8   1.558 0.000E+00 0.000E+00 0.267E-05
       898.572689       18.104496        7.894857     1     6     0     0     2   1.558 0.000E+00 0.000E+00 0.551E-03
       319.749834       55.199148        5.768063     1     5     0     0     1   1.558 0.000E+00 0.000E+00 0.267E-05
       746.563209       46.291590       38.530790     1     6     0     0     7   1.558 0.000E+00 0.000E+00 0.551E-03
       869.809386       18.476147       34.623697     1     4     0     0     5   1.558 0.000E+00 0.000E+00 0.349E-07
        51.180456       59.784752       57.127951     1     5     0     0     3   1.558 0.000E+00 0.000E+00 0.267E-05
       567.589614       21.004759       56.021145     1     5     0     0     7   1.558 0.000E+00 0.000E+00 0.267E-05
       858.033354        3.763603       32.754102     1     5     0     0     3   1.558 0.000E+00 0.000E+00 0.267E-05
       728.398470       53.729066       36.474037     1     6     0     0     1   1.558 0.000E+00 0.000E+00 0.551E-03
       606.746639       52.275347       89.195475     1     5     0     0     3   1.558 0.000E+00 0.000E+00 0.267E-05
       313.355864       85.102711       43.953221     1     5     0     0     6   1.558 0.000E+00 0.000E+00 0.267E-05
       610.013214       35.596651       14.687611     1     5     0     0     7   1.558 0.000E+00 0.000E+00 0.267E-05
       170.093317        6.595131       63.992674     1     5     0     0     7   1.558 0.000E+00 0.000E+00 0.267E-05
       470.495334       65.487271       21.704520     1     5     0     0     3   1.558 0.000E+00 0.000E+00 0.267E-05
       161.799487       48.280979       50.925536     1     5     0     0     6   1.558 0.000E+00 0.000E+00 0.267E-05
        14.328368       28.197698       54.297337     1     5     0     0     8   1.558 0.000E+00 0.000E+00 0.267E-05
       943.559025       63.728834       24.106805     1     5     0     0     4   1.558 0.000E+00 0.000E+00 0.267E-05
       823.896905       38.666914       26.713803     1     5     0     0     6   1.558 0.000E+00 0.000E+00 0.267E-05
        95.559196       49.165328       65.102239     1     5     0     0     7   1.558 0.000E+00 0.000E+00 0.267E-05
       851.274212       67.220017        0.950741     1     5     0     0     8   1.558 0.000E+00 0.000E+00 0.267E-05
       926.259775       80.046314       90.748999     1     4     0     0     2   1.558 0.000E+00 0.000E+00 0.349E-07
       681.764672       64.109535       90.135640     1     5     0     0     7   1.558 0.000E+00 0.000E+00 0.267E-05
       387.590513       98.332934       22.466408     1     5     0     0     8   1.558 0.000E+00 0.000E+00 0.267E-05
       334.560947       93.446689       30.885084     1     5     0     0     1   1.558 0.000E+00 0.000E+00 0.267E-05
       317.961028       25.077904        3.317097     1     4     0     0     3   1.558 0.000E+00 0.000E+00 0.349E-07
       290.176722       12.386117       56.459798     1     5     0     0     5   1.558 0.000E+00 0.000E+00 0.267E-05
       596.270007       24.918666        0.793844     1     5     0     0     6   1.558 0.000E+00 0.000E+00 0.267E-05
       672.462049       99.564574       51.488758     1     4     0     0     7   1.558 0.000E+00 0.000E+00 0.349E-07
       839.510806       51.421479       90.726205     1     5     0     0     4   1.558 0.000E+00 0.000E+00 0.267E-05
       327.599073       39.784890       74.836321     1     5     0     0     7   1.558 0.000E+00 0.000E+00 0.267E-05
       195.423361       45.828035       79.234007     1     5     0     0     7   1.558 0.000E+00 0.000E+00 0.267E-05
       703.753860       50.240578       64.645476     1     5     0     0     3   1.558 0.000E+00 0.000E+00 0.267E-05
       282.893070       32.651502       76.284845     1     4     0     0     4   1.558 0.000E+00 0.000E+00 0.349E-07
       696.704264       92.713154       47.946671     1     5     0     0     1   1.558 0.000E+00 0.000E+00 0.267E-05
       178.601404       89.314425       11.216349     1     5     0     0     1   1.558 0.000E+00 0.000E+00 0.267E-05
       532.148168       87.260388       12.812816     1     5     0     0     5   1.558 0.000E+00 0.000E+00 0.267E-05
       929.107561       40.530634       72.586255     1     5     0     0     4   1.558 0.000E+00 0.000E+00 0.267E-05
       694.954172       62.570915       90.255943     1     5     0     0     7   1.558 0.000E+00 0.000E+00 0.267E-05
       331.182633       26.658443       49.903307     1     5     0     0     6   1.558 0.000E+00 0.000E+00 0.267E-05
       781.256635        1.162010       42.979695     1     5     0     0     4   1.558 0.000E+00 0.000E+00 0.267E-05
       416.970692       55.499545       62.422210     1     5     0     0     1   1.558 0.000E+00 0.000E+00 0.267E-05
       452.493120       62.648668       56.881031     1     5     0     0     5   1.558 0.000E+00 0.000E+00 0.267E-05
       639.213324       45.021807       24.818087     1     5     0     0     3   1.558 0.000E+00 0.000E+00 0.267E-05
       891.674941       19.068563       40.095775     1     4     0     0     1   1.558 0.000E+00 0.000E+00 0.349E-07
       104.549177       39.354436       37.495763     1     5     0     0     8   1.558 0.000E+00 0.000E+00 0.267E-05
       605.074254       64.232150        8.266981     1     4     0     0     5   1.558 0.000E+00 0.000E+00 0.349E-07
        77.249842       67.322885       48.880991     1     5     0     0     2   1.558 0.000E+00 0.000E+00 0.267E-05
       649.835536       74.077119       87.079411     1     5     0     0     8   1.558 0.000E+00 0.000E+00 0.267E-05
       510.397096       46.550125       35.271101     1     5     0     0     5   1.558 0.000E+00 0.000E+00 0.267E-05
       711.265753        5.816027       80.174196     1     5     0     0     6   1.558 0.000E+00 0.000E+00 0.267E-05
       328.755270        9.636139       15.357364     1     5     0     0     5   1.558 0.000E+00 0.000E+00 0.267E-05
       148.739799       41.462394       35.449461     1     5     0     0     1   1.558 0.000E+00 0.000E+00 0.267E-05
       777.206964       29.495723       77.831898     1     5     0     0     3   1.558 0.000E+00 0.000E+00 0.267E-05
       639.654923       28.810469        2.567709     1     5     0     0     8   1.558 0.000E+00 0.000E+00 0.267E-05
       924.062485       18.779583       79.269493     1     5     0     0     5   1.558 0.000E+00 0.000E+00 0.267E-05
       539.530883       61.198446       16.933550     1     4     0     0     3   1.558 0.000E+00 0.000E+00 0.349E-07
        29.855855        5.149476       32.791909     1     5     0     0     4   1.558 0.000E+00 0.000E+00 0.267E-05
       791.965127       38.851624       66.380702     1     6     0     0     3   1.558 0.000E+00 0.000E+00 0.551E-03
       569.095070       75.130020       28.315319     1     5     0     0     1   1.558 0.000E+00 0.000E+00 0.267E-05
         6.530548        0.682267       39.278110     1     4     0     0     8   1.558 0.000E+00 0.000E+00 0.349E-07
       819.235168       32.726344       25.659064     1     5     0     0     3   1.558 0.000E+00 0.000E+00 0.267E-05
       926.168227        0.098665       98.289608     1     5     0     0     5   1.558 0.000E+00 0.000E+00 0.267E-05
       306.716391       80.140536       17.785475     1     5     0     0     5   1.558 0.000E+00 0.000E+00 0.267E-05
        73.650630       44.744003       28.893751     1     6     0     0     4   1.558 0.000E+00 0.000E+00 0.551E-03
       342.373592       65.042393        5.819334     1     5     0     0     5   1.558 0.000E+00 0.000E+00 0.267E-05
        99.195159       18.249822        3.532006     1     5     0     0     8   1.558 0.000E+00 0.000E+00 0.267E-05
       500.710539       52.376405        4.939748     1     5     0     0     2   1.558 0.000E+00 0.000E+00 0.267E-05
       841.444487       69.441055       12.824898     1     5     0     0     6   1.558 0.000E+00 0.000E+00 0.267E-05
       634.830044       94.199793       11.017463     1     5     0     0     8   1.558 0.000E+00 0.000E+00 0.267E-05
       985.361248       99.083643       72.047796     1     5     0     0     5   1.558 0.000E+00 0.000E+00 0.267E-05
       343.281751       82.967239       52.221549     1     5     0     0     4   1.558 0.000E+00 0.000E+00 0.267E-05
       863.525266        8.311179       98.572873     1     5     0     0     5   1.558 0.000E+00 0.000E+00 0.267E-05
       643.858098       26.231262       57.431685     1     5     0     0     2   1.558 0.000E+00 0.000E+00 0.267E-05
       685.727965       43.271939       18.402458     1     6     0     0     2   1.558 0.000E+00 0.000E+00 0.551E-03
        88.866133       16.679227       87.966941     1     5     0     0     7   1.558 0.000E+00 0.000E+00 0.267E-05
       204.599763       63.157656       10.843798     1     5     0     0     1   1.558 0.000E+00 0.000E+00 0.267E-05
       563.187511       71.930925       79.254903     1     5     0     0     3   1.558 0.000E+00 0.000E+00 0.267E-05
       789.049322       48.239227       30.394630     1     5     0     0     3   1.558 0.000E+00 0.000E+00 0.267E-05
       814.288351       83.210161       33.801860     1     5     0     0     3   1.558 0.000E+00 0.000E+00 0.267E-05
       434.748327        9.830197       87.476224     1     6     0     0     7   1.558 0.000E+00 0.000E+00 0.551E-03
       807.030125       62.481717       48.616098     1     4     0     0     1   1.558 0.000E+00 0.000E+00 0.349E-07
       439.414651       35.282643       91.920993     1     5     0     0     6   1.558 0.000E+00 0.000E+00 0.267E-05
       767.041612       24.189353       60.076940     1     5     0     0     4   1.558 0.000E+00 0.000E+00 0.267E-05
       482.862825       84.911790       37.097724     1     6     0     0     6   1.558 0.000E+00 0.000E+00 0.551E-03
       366.430761       48.969230       37.368273     1     5     0     0     2   1.558 0.000E+00 0.000E+00 0.267E-05
       520.045467       97.057847       32.570364     1     5     0     0     1   1.558 0.000E+00 0.000E+00 0.267E-05
       328.773152        3.625929       13.101065     1     5     0     0     7   1.558 0.000E+00 0.000E+00 0.267E-05
       904.885744       88.177129       81.171898     1     5     0     0     6   1.558 0.000E+00 0.000E+00 0.267E-05
       218.183908       72.546360       37.763226     1     5     0     0     4   1.558 0.000E+00 0.000E+00 0.267E-05
         0.868769        6.955507       36.129620     1     5     0     0     1   1.558 0.000E+00 0.000E+00 0.267E-05
       239.217051       32.157727       23.801182     1     5     0     0     6   1.558 0.000E+00 0.000E+00 0.267E-05
       821.910142       48.713528       43.072864     1     5     0     0     7   1.558 0.000E+00 0.000E+00 0.267E-05
       536.724844       26.603914       77.329860     1     5     0     0     6   1.558 0.000E+00 0.000E+00 0.267E-05
       629.863503       68.260102       50.220772     1     5     0     0     2   1.558 0.000E+00 0.000E+00 0.267E-05
       159.723395       87.091644       80.394908     1     5     0     0     5   1.558 0.000E+00 0.000E+00 0.267E-05
       638.174598       69.383285       47.795064     1     5     0     0     5   1.558 0.000E+00 0.000E+00 0.267E-05
       860.700889       25.196401       70.727957     1     5     0     0     6   1.558 0.000E+00 0.000E+00 0.267E-05
       718.608108       36.957858       45.803681     1     5     0     0     6   1.558 0.000E+00 0.000E+00 0.267E-05
       168.866067       91.454710       97.832832     1     5     0     0     5   1.558 0.000E+00 0.000E+00 0.267E-05
       454.935862       65.895575       36.972377     1     5     0     0     1   1.558 0.000E+00 0.000E+00 0.267E-05
       642.609223       27.739289       36.878327     1     5     0     0     7   1.558 0.000E+00 0.000E+00 0.267E-05
       609.784056       51.328481       92.700404     1     5     0     0     1   1.558 0.000E+00 0.000E+00 0.267E-05
       915.662005       25.583739       88.392674     1     5     0     0     1   1.558 0.000E+00 0.000E+00 0.267E-05
       886.124106       97.595556       78.661371     1     5     0     0     3   1.558 0.000E+00 0.000E+00 0.267E-05
       426.703554       97.194892       40.153331     1     6     0     0     5   1.558 0.000E+00 0.000E+00 0.551E-03
       418.434729       97.715083       29.577620     1     5     0     0     5   1.558 0.000E+00 0.000E+00 0.267E-05
       636.329085       74.664269       65.534596     1     6     0     0     5   1.558 0.000E+00 0.000E+00 0.551E-03
       486.576782       71.107854       10.727712     1     5     0     0     8   1.558 0.000E+00 0.000E+00 0.267E-05
         3.770265       58.558678       44.190558     1     5     0     0     2   1.558 0.000E+00 0.000E+00 0.267E-05
       890.495704       35.338195       41.075266     1     5     0     0     6   1.558 0.000E+00 0.000E+00 0.267E-05
       179.739356       98.751443       91.572705     1     5     0     0     2   1.558 0.000E+00 0.000E+00 0.267E-05
       570.249621       77.899100       19.989061     1     5     0     0     2   1.558 0.000E+00 0.000E+00 0.267E-05
       471.299630       84.589906       93.065484     1     6     0     0     8   1.558 0.000E+00 0.000E+00 0.551E-03
       539.189408        9.386593       86.935692     1     5     0     0     1   1.558 0.000E+00 0.000E+00 0.267E-05
       584.447122       40.681069       51.003156     1     5     0     0     1   1.558 0.000E+00 0.000E+00 0.267E-05
       104.940178        4.364214        2.951109     1     5     0     0     2   1.558 0.000E+00 0.000E+00 0.267E-05
       272.073281       21.203652       42.992986     1     5     0     0     1   1.558 0.000E+00 0.000E+00 0.267E-05
       358.065482       60.469315       22.441907     1     5     0     0     8   1.558 0.000E+00 0.000E+00 0.267E-05
       241.260323       26.908843       99.470943     1     6     0     0     1   1.558 0.000E+00 0.000E+00 0.551E-03
       920.721948       45.626267       69.005121     1     5     0     0     5   1.558 0.000E+00 0.000E+00 0.267E-05
       980.771613       14.689937        5.362671     1     5     0     0     6   1.558 0.000E+00 0.000E+00 0.267E-05
       654.435687       22.239568       41.133152     1     5     0     0     2   1.558 0.000E+00 0.000E+00 0.267E-05
       646.745862       43.928450       58.936539     1     5     0     0     2   1.558 0.000E+00 0.000E+00 0.267E-05
       467.942093       86.308134       18.801743     1     5     0     0     8   1.558 0.000E+00 0.000E+00 0.267E-05
       261.415175       86.333059       11.673307     1     5     0     0     5   1.558 0.000E+00 0.000E+00 0.267E-05
       632.770837       47.581793       80.953297     1     5     0     0     8   1.558 0.000E+00 0.000E+00 0.267E-05
        57.081369       69.396087       94.210774     1     5     0     0     4   1.558 0.000E+00 0.000E+00 0.267E-05
       552.768601       77.656429       30.887240     1     6     0     0     2   1.558 0.000E+00 0.000E+00 0.551E-03
       864.161862       29.603164       15.359957     1     5     0     0     2   1.558 0.000E+00 0.000E+00 0.267E-05
       247.478037       38.531531       56.462229     1     5     0     0     7   1.558 0.000E+00 0.000E+00 0.267E-05
       445.092057       53.788533       71.693551     1     5     0     0     7   1.558 0.000E+00 0.000E+00 0.267E-05
       364.600069       22.396445       14.478117     1     5     0     0     7   1.558 0.000E+00 0.000E+00 0.267E-05
       192.458694       99.077106        1.426827     1     4     0     0     3   1.558 0.000E+00 0.000E+00 0.349E-07
       240.204329       48.212577       42.175919     1     5     0     0     8   1.558 0.000E+00 0.000E+00 0.267E-05
        40.941826       33.591583       91.950160     1     5     0     0     7   1.558 0.000E+00 0.000E+00 0.267E-05
       961.502171        8.288266       40.759472     1     5     0     0     6   1.558 0.000E+00 0.000E+00 0.267E-05
       748.682786       85.550922       99.096746     1     5     0     0     8   1.558 0.000E+00 0.000E+00 0.267E-05
       516.854011       64.433913       55.107024     1     6     0     0     6   1.558 0.000E+00 0.000E+00 0.551E-03
       537.309819       31.507788       85.162726     1     5     0     0     8   1.558 0.000E+00 0.000E+00 0.267E-05