ITEM: TIMESTEP
0
ITEM: NUMBER OF ATOMS
         523
ITEM: BOX BOUNDS pp pp pp
  0.0000000E+00   200.000000000000     
  0.0000000E+00   200.000000000000     
  0.0000000E+00   5000.00000000000     
ITEM: ATOMS x y z f1 f2 f3 f4 orient radius rate_mig rate_rot rate_emit
        76.200416       95.303656      155.468000    12    12     0     0     7   3.568 0.000E+00 0.000E+00 0.192E-03
        58.487605      198.702774      218.865639    11     4     0     0     5   3.466 0.000E+00 0.000E+00 0.377E-05
        18.077024       95.755857      327.978975    17     0     0     0     4   4.010 0.172E-52 0.343E-52 0.115E-22
        29.205567       86.271280     2037.904918     1     0     0     0     8   1.560 0.172E-04 0.343E-04 0.000E+00
       192.681945       49.246727       64.439787    14     9     0     0     6   3.756 0.000E+00 0.000E+00 0.939E-04
         3.383076        8.990276       94.711516    24    15     0     0     8   4.495 0.000E+00 0.000E+00 0.153E-03
        53.686581       88.143623      695.932070    19     0     0     0     2   4.160 0.172E-58 0.343E-58 0.337E-23
       197.666948       80.736528      489.120152    16     0     0     0     5   3.930 0.172E-49 0.343E-49 0.230E-22
        44.320441       51.839916      773.015850    24     0     0     0     3   4.500 0.172E-73 0.343E-73 0.301E-24
        28.682362      100.261744       39.360714    18     5     0     0     1   4.084 0.000E+00 0.000E+00 0.430E-05
       184.819855       52.506930     1682.951395     1     0     0     0     3   1.560 0.172E-04 0.343E-04 0.000E+00
        20.240241      165.908759       62.109052    12    13     0     0     6   3.568 0.000E+00 0.000E+00 0.246E-03
        87.167441      168.430487       78.865369     8    13     0     0     7   3.117 0.000E+00 0.000E+00 0.671E-03
       185.426611       31.295317      486.032669    18     0     0     0     2   4.080 0.172E-55 0.343E-55 0.608E-23
       116.105942        4.551717      458.572817     9     0     0     0     8   3.240 0.172E-28 0.343E-28 0.401E-19
        79.016203        3.171207      685.268528    21     0     0     0     1   4.300 0.172E-64 0.343E-64 0.116E-23
         6.634799       20.574716      319.401105    14     0     0     0     2   3.760 0.172E-43 0.343E-43 0.112E-21
        98.237489        4.501858      325.001990     8     0     0     0     6   3.120 0.172E-25 0.343E-25 0.233E-14
        44.835199      141.851981     1408.735855     1     0     0     0     4   1.560 0.172E-04 0.343E-04 0.000E+00
       197.314632       79.041790      128.483059     7    12     0     0     4   2.981 0.000E+00 0.000E+00 0.664E-03
        89.106751       60.093647     1283.121625     1     0     0     0     8   1.560 0.172E-04 0.343E-04 0.000E+00
        10.229538      109.794347      161.628399    12     8     0     0     6   3.568 0.000E+00 0.000E+00 0.854E-04
        33.652471      128.282407      806.545984    26     0     0     0     5   4.620 0.172E-79 0.343E-79 0.138E-24
       120.987692       93.228463      419.160634    12     0     0     0     6   3.570 0.172E-37 0.343E-37 0.773E-21
       177.870505       23.881618       26.486996    14     4     0     0     1   3.756 0.000E+00 0.000E+00 0.369E-05
        14.356484        0.529404       92.326420     6     8     0     0     1   2.832 0.000E+00 0.000E+00 0.167E-03
       105.412705      181.900153      465.141268    20     0     0     0     6   4.230 0.172E-61 0.343E-61 0.195E-23
       103.094195       96.495586     1144.504814     1     0     0     0     4   1.560 0.172E-04 0.343E-04 0.000E+00
        85.548639       97.744102     1543.600608     1     0     0     0     1   1.560 0.172E-04 0.343E-04 0.000E+00
        65.273638       47.718646       48.153904    12    10     0     0     6   3.568 0.000E+00 0.000E+00 0.125E-03
         2.862109      118.480941      758.360725    18     0     0     0     3   4.080 0.172E-55 0.343E-55 0.608E-23
       141.897536       63.343014      565.356000    13     0     0     0     8   3.660 0.172E-40 0.343E-40 0.278E-21
        32.192202      118.320390      682.922112    13     0     0     0     5   3.660 0.172E-40 0.343E-40 0.278E-21
       120.531350       69.535966      495.664905     9     0     0     0     2   3.240 0.172E-28 0.343E-28 0.401E-19
        29.151122        2.868140      960.446513    25     0     0     0     2   4.560 0.172E-76 0.343E-76 0.201E-24
       192.165730      135.997317      620.823106    22     0     0     0     7   4.370 0.172E-67 0.343E-67 0.721E-24
       147.232439      155.953909      174.482297    10     7     0     0     6   3.357 0.000E+00 0.000E+00 0.777E-04
         9.048248      136.028364     1380.377043     1     0     0     0     7   1.560 0.172E-04 0.343E-04 0.000E+00
       125.251883       48.286411      660.119129    27     0     0     0     1   4.680 0.172E-82 0.343E-82 0.961E-25
       106.579410      102.054590       59.121998     6    10     0     0     8   2.832 0.000E+00 0.000E+00 0.405E-03
       192.180409       38.614958     1831.687539     1     0     0     0     6   1.560 0.172E-04 0.343E-04 0.000E+00
       175.179572      164.060722     1107.628214     1     0     0     0     5   1.560 0.172E-04 0.343E-04 0.000E+00
       156.542273      150.372366      189.882206     9     5     0     0     4   3.241 0.000E+00 0.000E+00 0.479E-05
       148.202653      198.443104       84.509234    12     6     0     0     1   3.568 0.000E+00 0.000E+00 0.603E-04
        83.069466       91.154192      385.800169    10     0     0     0     3   3.360 0.172E-31 0.343E-31 0.889E-20
        84.776346       17.674247      857.278091    24     0     0     0     5   4.500 0.172E-73 0.343E-73 0.301E-24
       120.053956       52.522876      703.534843    22     0     0     0     8   4.370 0.172E-67 0.343E-67 0.721E-24
       158.292624       78.586338      415.084022    19     0     0     0     7   4.160 0.172E-58 0.343E-58 0.337E-23
       113.170984      198.539347       75.422456    19    15     0     0     7   4.158 0.000E+00 0.000E+00 0.191E-03
       150.734745       44.339680      539.575542    12     0     0     0     3   3.570 0.172E-37 0.343E-37 0.773E-21
       100.094614       21.294259     1524.688661     1     0     0     0     4   1.560 0.172E-04 0.343E-04 0.000E+00
        91.242323      103.185768      131.290292    10     7     0     0     5   3.357 0.000E+00 0.000E+00 0.777E-04
        53.647173      107.492386      400.707070    11     0     0     0     7   3.470 0.172E-34 0.343E-34 0.243E-20
       102.452658      101.661715     1004.192504     1     0     0     0     1   1.560 0.172E-04 0.343E-04 0.000E+00
         4.254788      135.226066      559.526675    19     0     0     0     4   4.160 0.172E-58 0.343E-58 0.337E-23
       163.979689      116.460209       47.705366    11     6     0     0     5   3.466 0.000E+00 0.000E+00 0.551E-05
        90.409988       14.959585      315.807017    10     0     0     0     4   3.360 0.172E-31 0.343E-31 0.889E-20
       142.314409      191.032037       42.048257    14     2     0     0     8   3.756 0.000E+00 0.000E+00 0.225E-05
       146.028746       27.470077      281.148170     7     0     0     0     3   2.980 0.172E-22 0.343E-22 0.193E-12
        88.474965       34.211840      298.612400     9     0     0     0     6   3.240 0.172E-28 0.343E-28 0.401E-19
       156.174390       66.105243     1148.716210     1     0     0     0     7   1.560 0.172E-04 0.343E-04 0.000E+00
        69.408959      157.667286     1194.156418     1     0     0     0     2   1.560 0.172E-04 0.343E-04 0.000E+00
       138.248213       95.792369      529.222476    14     0     0     0     3   3.760 0.172E-43 0.343E-43 0.112E-21
       156.144721       56.550525      237.821346    10     1     0     0     6   3.357 0.000E+00 0.000E+00 0.141E-05
        76.230508      149.699902      269.608101    25     1     0     0     1   4.557 0.000E+00 0.000E+00 0.140E-05
       146.496027       50.757826       95.220335     8    12     0     0     2   3.117 0.000E+00 0.000E+00 0.438E-03
       129.452666       14.441000     1146.696729     1     0     0     0     7   1.560 0.172E-04 0.343E-04 0.000E+00
       122.525432       82.015777      280.043208    15     2     0     0     6   3.843 0.000E+00 0.000E+00 0.252E-04
        24.777135       20.821728     1363.459999     1     0     0     0     8   1.560 0.172E-04 0.343E-04 0.000E+00
       137.376661      191.591577     1037.341946    41     0     0     0     2   5.370 0.172-124 0.343-124 0.246E-26
       167.800373      167.717694       27.241053    11     3     0     0     8   3.466 0.000E+00 0.000E+00 0.301E-05
       144.497725       61.239522      321.732739    16     1     0     0     2   3.927 0.000E+00 0.000E+00 0.140E-05
         9.034998       29.961261      372.519227    12     0     0     0     8   3.570 0.172E-37 0.343E-37 0.773E-21
       158.729152      182.748925     1901.293352     1     0     0     0     7   1.560 0.172E-04 0.343E-04 0.000E+00
        74.125379      186.008205      224.895500    15     1     0     0     8   3.843 0.000E+00 0.000E+00 0.157E-04
        49.351751      199.911892      323.751254     8     0     0     0     8   3.120 0.172E-25 0.343E-25 0.233E-14
        58.214852        1.993577      279.149481     6     1     0     0     7   2.832 0.000E+00 0.000E+00 0.141E-05
       142.663830      129.976017      590.271989    23     0     0     0     1   4.430 0.172E-70 0.343E-70 0.458E-24
       171.188349       90.236262     1429.709384     1     0     0     0     4   1.560 0.172E-04 0.343E-04 0.000E+00
       136.157686      115.145489      382.870616     6     0     0     0     6   2.830 0.172E-19 0.343E-19 0.145E-14
       163.899657       47.470992      252.619155     8     1     0     0     7   3.117 0.000E+00 0.000E+00 0.141E-05
       125.181978       17.736169     1648.284296     1     0     0     0     5   1.560 0.172E-04 0.343E-04 0.000E+00
        30.441246      103.535968     2057.200242     1     0     0     0     7   1.560 0.172E-04 0.343E-04 0.000E+00
       169.600259      190.786053       58.845924     9     7     0     0     5   3.241 0.000E+00 0.000E+00 0.822E-04
       121.858180       90.852696       31.862258     9     2     0     0     8   3.241 0.000E+00 0.000E+00 0.227E-05
        72.878291        7.945426      166.329290    11     7     0     0     6   3.466 0.000E+00 0.000E+00 0.743E-04
        55.669824      128.780960     2048.050012     1     0     0     0     8   1.560 0.172E-04 0.343E-04 0.000E+00
        66.581329      110.348930      239.755886     8     2     0     0     8   3.117 0.000E+00 0.000E+00 0.227E-05
       139.698075      159.703354      387.870412     8     0     0     0     6   3.120 0.172E-25 0.343E-25 0.233E-14
        79.525387      166.645840       31.563814     6     2     0     0     8   2.832 0.000E+00 0.000E+00 0.230E-05
       134.691756       73.108936      514.584422    20     0     0     0     1   4.230 0.172E-61 0.343E-61 0.195E-23
        69.915281       31.162092      407.321537    11     0     0     0     4   3.470 0.172E-34 0.343E-34 0.243E-20
        21.455098      170.980206      143.003419    13    19     0     0     3   3.664 0.000E+00 0.000E+00 0.117E-02
        24.010178       12.065779       94.375933    16    17     0     0     7   3.927 0.000E+00 0.000E+00 0.366E-03
       116.490358       58.226885      100.210725    10    20     0     0     1   3.357 0.000E+00 0.000E+00 0.723E-02
        47.815967       75.836501      316.915706     9     0     0     0     6   3.240 0.172E-28 0.343E-28 0.401E-19
       182.536515      123.660241      154.057776    12    14     0     0     3   3.568 0.000E+00 0.000E+00 0.319E-03
        50.462968      182.691284      871.456278    34     0     0     0     1   5.050 0.172-103 0.343-103 0.119E-25
        94.866926        2.365819       19.328712     4     3     0     0     8   2.474 0.000E+00 0.000E+00 0.386E-04
       145.580067       45.528470     1799.235006     1     0     0     0     1   1.560 0.172E-04 0.343E-04 0.000E+00
        32.189829       34.669919      305.024077     9     1     0     0     3   3.241 0.000E+00 0.000E+00 0.141E-05
       118.756428       77.532862      163.896739    17    10     0     0     2   4.007 0.000E+00 0.000E+00 0.988E-04
       142.025835       25.090515      831.189079    14     0     0     0     6   3.760 0.172E-43 0.343E-43 0.112E-21
        29.144327       51.612086      654.601244    14     0     0     0     4   3.760 0.172E-43 0.343E-43 0.112E-21
       182.973458       80.026475      160.941458    13    13     0     0     5   3.664 0.000E+00 0.000E+00 0.216E-03
       136.253165       80.415379     2053.315930     1     0     0     0     4   1.560 0.172E-04 0.343E-04 0.000E+00
       197.204266       37.593889      237.783320     8     0     0     0     4   3.120 0.172E-25 0.343E-25 0.233E-14
        19.332793      160.432904     1212.358409     1     0     0     0     2   1.560 0.172E-04 0.343E-04 0.000E+00
       147.011756      187.597028      659.470206    20     0     0     0     5   4.230 0.172E-61 0.343E-61 0.195E-23
       156.833165       82.166430      500.425169    12     0     0     0     3   3.570 0.172E-37 0.343E-37 0.773E-21
        19.254229       79.038506      189.797689    18     6     0     0     7   4.084 0.000E+00 0.000E+00 0.500E-05
       191.645150      195.307816      230.540179    16     4     0     0     5   3.927 0.000E+00 0.000E+00 0.409E-04
        96.718835      183.605263     1382.287200     1     0     0     0     7   1.560 0.172E-04 0.343E-04 0.000E+00
       164.514540        0.054582      184.467838    18    11     0     0     1   4.084 0.000E+00 0.000E+00 0.110E-03
        53.163309      111.314124       89.989475     9    12     0     0     7   3.241 0.000E+00 0.000E+00 0.325E-03
       180.928504       22.893776      498.095555    14     0     0     0     4   3.760 0.172E-43 0.343E-43 0.112E-21
        65.967448       49.346885      650.917390    21     0     0     0     6   4.300 0.172E-64 0.343E-64 0.116E-23
        21.787236      148.157159      189.561989     6     2     0     0     6   2.832 0.000E+00 0.000E+00 0.230E-05
       168.492389       44.429160     1457.986140     1     0     0     0     5   1.560 0.172E-04 0.343E-04 0.000E+00
       138.780044      151.375606     2112.067177     1     0     0     0     7   1.560 0.172E-04 0.343E-04 0.000E+00
        91.102516       27.250869      230.658806     9     1     0     0     2   3.241 0.000E+00 0.000E+00 0.141E-05
        83.578519      100.506524      290.298083    11     1     0     0     6   3.466 0.000E+00 0.000E+00 0.141E-05
        10.605582       84.411499      697.701822    15     0     0     0     3   3.840 0.172E-46 0.343E-46 0.486E-22
       184.077770      140.936398      585.808387    15     0     0     0     3   3.840 0.172E-46 0.343E-46 0.486E-22
       180.615471       48.912377     1700.896609     1     0     0     0     3   1.560 0.172E-04 0.343E-04 0.000E+00
       180.066198       71.559589      147.437813     7     6     0     0     3   2.981 0.000E+00 0.000E+00 0.751E-04
        63.585400      127.145171      101.709727    11    15     0     0     3   3.466 0.000E+00 0.000E+00 0.533E-03
       176.975352       48.367039     1100.551791     1     0     0     0     2   1.560 0.172E-04 0.343E-04 0.000E+00
        80.195313       28.451130      592.027274    19     0     0     0     8   4.160 0.172E-58 0.343E-58 0.337E-23
        80.422664      138.339351      756.990888    16     0     0     0     6   3.930 0.172E-49 0.343E-49 0.230E-22
        39.553546       58.691464      282.306919     9     1     0     0     4   3.241 0.000E+00 0.000E+00 0.141E-05
       114.761103      101.063241       80.083514     9    10     0     0     7   3.241 0.000E+00 0.000E+00 0.175E-03
       156.951282      111.389702      216.727265    19     4     0     0     4   4.158 0.000E+00 0.000E+00 0.363E-05
       137.388064       42.145909      116.539994     9     9     0     0     3   3.241 0.000E+00 0.000E+00 0.133E-03
       172.909563      124.022744      340.917032    13     0     0     0     1   3.660 0.172E-40 0.343E-40 0.278E-21
         3.183738       87.720472      301.069663     8     1     0     0     3   3.117 0.000E+00 0.000E+00 0.141E-05
        82.658531      117.489808      437.260206    13     0     0     0     7   3.660 0.172E-40 0.343E-40 0.278E-21
        27.935057      130.500149     1526.995438     1     0     0     0     5   1.560 0.172E-04 0.343E-04 0.000E+00
        32.883714       95.003217     2119.574458     1     0     0     0     2   1.560 0.172E-04 0.343E-04 0.000E+00
        78.948477      186.130533      270.538431     9     0     0     0     8   3.240 0.172E-28 0.343E-28 0.401E-19
         9.321021      136.934427     1278.629864     1     0     0     0     7   1.560 0.172E-04 0.343E-04 0.000E+00
        43.739021       46.694139     1775.218476     1     0     0     0     6   1.560 0.172E-04 0.343E-04 0.000E+00
        52.189601       96.775709      434.766350    15     0     0     0     1   3.840 0.172E-46 0.343E-46 0.486E-22
       106.202312       45.892962     1186.983716     1     0     0     0     4   1.560 0.172E-04 0.343E-04 0.000E+00
       106.199210      145.446176      375.731000    11     0     0     0     6   3.470 0.172E-34 0.343E-34 0.243E-20
       140.998689       86.963348      101.502835     7     4     0     0     8   2.981 0.000E+00 0.000E+00 0.405E-05
        33.949085      189.655045      289.120468     6     0     0     0     2   2.830 0.172E-19 0.343E-19 0.145E-14
         7.068869      105.832722       86.135320    13     9     0     0     5   3.664 0.000E+00 0.000E+00 0.980E-04
       107.280029       69.512174      796.301420    21     0     0     0     3   4.300 0.172E-64 0.343E-64 0.116E-23
       187.099156       25.839670      594.451228    18     0     0     0     5   4.080 0.172E-55 0.343E-55 0.608E-23
        14.620965       42.030617       75.171912    17    15     0     0     4   4.007 0.000E+00 0.000E+00 0.220E-03
       140.277058      119.318535      725.001754    24     0     0     0     7   4.500 0.172E-73 0.343E-73 0.301E-24
       183.058259      157.405006      921.293093    31     0     0     0     5   4.900 0.172E-94 0.343E-94 0.269E-25
       167.082795      130.484526      510.113699    10     0     0     0     1   3.360 0.172E-31 0.343E-31 0.889E-20
       189.625262       48.658551       51.156701    14    11     0     0     4   3.756 0.000E+00 0.000E+00 0.133E-03
        60.221444      146.072946       44.664971     9     3     0     0     2   3.241 0.000E+00 0.000E+00 0.305E-05
       134.770674       31.589511      209.956311    14     4     0     0     7   3.756 0.000E+00 0.000E+00 0.369E-05
        13.317034       53.456427     1816.532029     1     0     0     0     2   1.560 0.172E-04 0.343E-04 0.000E+00
       162.106260       26.007547      264.802995    12     0     0     0     7   3.570 0.172E-37 0.343E-37 0.773E-21
       137.206159      159.188233      820.382391    22     0     0     0     8   4.370 0.172E-67 0.343E-67 0.721E-24
        14.297527      191.558534      818.868754    16     0     0     0     4   3.930 0.172E-49 0.343E-49 0.230E-22
       186.506977       27.125986      560.284272    23     0     0     0     4   4.430 0.172E-70 0.343E-70 0.458E-24
        17.214158      161.105156      239.248219    10     3     0     0     7   3.357 0.000E+00 0.000E+00 0.303E-05
       155.472320      182.582328      629.701769    20     0     0     0     7   4.230 0.172E-61 0.343E-61 0.195E-23
       133.901392      104.550800      300.260916     9     0     0     0     7   3.240 0.172E-28 0.343E-28 0.401E-19
        75.626064       40.147058     1749.792254     1     0     0     0     6   1.560 0.172E-04 0.343E-04 0.000E+00
       145.937555        1.583386      388.653396     6     0     0     0     6   2.830 0.172E-19 0.343E-19 0.145E-14
        13.844866       53.071363       10.988686     8     2     0     0     2   3.117 0.000E+00 0.000E+00 0.227E-05
        39.081644       34.912709     1198.816931     1     0     0     0     7   1.560 0.172E-04 0.343E-04 0.000E+00
       104.256922      191.293224      419.995838    18     0     0     0     2   4.080 0.172E-55 0.343E-55 0.608E-23
       154.114390      184.525554       75.340852    13    13     0     0     4   3.664 0.000E+00 0.000E+00 0.216E-03
        66.476216      145.932220     1155.364079     1     0     0     0     4   1.560 0.172E-04 0.343E-04 0.000E+00
        72.660095      132.359960      253.137131     7     2     0     0     1   2.981 0.000E+00 0.000E+00 0.228E-05
       127.976974      118.697515     1622.284697     1     0     0     0     8   1.560 0.172E-04 0.343E-04 0.000E+00
        43.644571      116.036595      124.681332    13     9     0     0     4   3.664 0.000E+00 0.000E+00 0.980E-04
        63.514784        9.564383      426.956287     9     0     0     0     3   3.240 0.172E-28 0.343E-28 0.401E-19
       134.295371      139.322942      167.019906    11     7     0     0     1   3.466 0.000E+00 0.000E+00 0.743E-04
        59.942700       23.938973      303.833771    18     0     0     0     2   4.080 0.172E-55 0.343E-55 0.608E-23
       170.898369      163.056464      297.043522    11     1     0     0     2   3.466 0.000E+00 0.000E+00 0.141E-05
       178.167335      159.217288       40.589806     7     6     0     0     4   2.981 0.000E+00 0.000E+00 0.751E-04
       156.333841      169.531465      887.246612     1     0     0     0     1   1.560 0.172E-04 0.343E-04 0.000E+00
        93.070350       90.751212      911.882230    45     0     0     0     5   5.540 0.172-136 0.343-136 0.117E-26
       121.818578       42.282754      474.555443    11     0     0     0     8   3.470 0.172E-34 0.343E-34 0.243E-20
        37.796010      164.756819      163.573743    11     9     0     0     2   3.466 0.000E+00 0.000E+00 0.110E-03
        15.647586      133.934744      233.294877    17     2     0     0     3   4.007 0.000E+00 0.000E+00 0.224E-05
         5.545140       14.653202       22.317900    10     6     0     0     6   3.357 0.000E+00 0.000E+00 0.636E-04
       131.003527      135.578536      417.679856    15     0     0     0     4   3.840 0.172E-46 0.343E-46 0.486E-22
       113.483827        2.100829     1472.217869     1     0     0     0     1   1.560 0.172E-04 0.343E-04 0.000E+00
        33.819008      185.434281      627.026582    16     0     0     0     8   3.930 0.172E-49 0.343E-49 0.230E-22
       198.706249       28.854689      618.456514    26     0     0     0     2   4.620 0.172E-79 0.343E-79 0.138E-24
        91.555690      168.567916       66.232380    16     9     0     0     7   3.927 0.000E+00 0.000E+00 0.881E-04
       124.121270       61.993981      212.204042    14     1     0     0     7   3.756 0.000E+00 0.000E+00 0.141E-05
        86.620927      153.975224      121.417730    11    21     0     0     5   3.466 0.000E+00 0.000E+00 0.641E-02
       105.636755       96.246122       77.162972    12    11     0     0     3   3.568 0.000E+00 0.000E+00 0.155E-03
        27.083587       16.609617      372.239203     9     0     0     0     2   3.240 0.172E-28 0.343E-28 0.401E-19
       174.627327      179.491471      990.771046     1     0     0     0     7   1.560 0.172E-04 0.343E-04 0.000E+00
       177.495932       85.126180     1842.422383     1     0     0     0     3   1.560 0.172E-04 0.343E-04 0.000E+00
       174.794023      145.135793      574.364041     7     0     0     0     5   2.980 0.172E-22 0.343E-22 0.193E-12
        71.939531      165.739158     1270.086937     1     0     0     0     8   1.560 0.172E-04 0.343E-04 0.000E+00
        93.024411      139.894656      625.214478    18     0     0     0     3   4.080 0.172E-55 0.343E-55 0.608E-23
        84.249420       51.644100      299.627423     8     0     0     0     1   3.120 0.172E-25 0.343E-25 0.233E-14
        83.675030       86.362751      489.752464    17     0     0     0     5   4.010 0.172E-52 0.343E-52 0.115E-22
       166.500899       84.496367      769.340898    20     0     0     0     3   4.230 0.172E-61 0.343E-61 0.195E-23
       173.919202      110.405202      116.268054    12     8     0     0     7   3.568 0.000E+00 0.000E+00 0.854E-04
       153.043884      168.646667     1544.242155     1     0     0     0     6   1.560 0.172E-04 0.343E-04 0.000E+00
       185.653702       33.368032      162.772698     6     9     0     0     2   2.832 0.000E+00 0.000E+00 0.255E-03
       157.066830       30.971370      286.115563    11     0     0     0     2   3.470 0.172E-34 0.343E-34 0.243E-20
        16.698661      154.469899      359.965798    10     0     0     0     7   3.360 0.172E-31 0.343E-31 0.889E-20
       180.158755      191.942447      191.116486    14     5     0     0     7   3.756 0.000E+00 0.000E+00 0.494E-04
        74.651841       10.524273      640.671566    20     0     0     0     3   4.230 0.172E-61 0.343E-61 0.195E-23
       163.759382      194.260116      700.347634    26     0     0     0     8   4.620 0.172E-79 0.343E-79 0.138E-24
        11.897631       96.102907      270.102150    14     2     0     0     1   3.756 0.000E+00 0.000E+00 0.225E-05
        50.483664       55.314263      342.001508    11     1     0     0     2   3.466 0.000E+00 0.000E+00 0.141E-05
        94.656289      139.871803      191.245201    24     7     0     0     2   4.495 0.000E+00 0.000E+00 0.550E-05
        81.948468       71.784479      726.114061    13     0     0     0     2   3.660 0.172E-40 0.343E-40 0.278E-21
       189.274453      144.939571      795.019819    19     0     0     0     4   4.160 0.172E-58 0.343E-58 0.337E-23
        77.048260      155.468386      578.055124    14     0     0     0     8   3.760 0.172E-43 0.343E-43 0.112E-21
        62.787802      169.262456     1350.943404     1     0     0     0     6   1.560 0.172E-04 0.343E-04 0.000E+00
       119.343147       98.027318       54.225113     9     6     0     0     7   3.241 0.000E+00 0.000E+00 0.592E-05
       178.642297      131.002360      373.665615    11     0     0     0     7   3.470 0.172E-34 0.343E-34 0.243E-20
         9.968392      150.849465      389.379456    15     0     0     0     8   3.840 0.172E-46 0.343E-46 0.486E-22
        11.660612       59.848489     1718.597695     1     0     0     0     6   1.560 0.172E-04 0.343E-04 0.000E+00
       167.556984      125.181580     1113.608925     1     0     0     0     5   1.560 0.172E-04 0.343E-04 0.000E+00
        81.740453       40.801116      619.303770    11     0     0     0     7   3.470 0.172E-34 0.343E-34 0.243E-20
       118.313144      104.423288      852.467424    32     0     0     0     1   4.950 0.172E-97 0.343E-97 0.203E-25
       122.726659       38.649775      783.797179    24     0     0     0     8   4.500 0.172E-73 0.343E-73 0.301E-24
       148.646724       11.381769      118.995798    10    19     0     0     6   3.357 0.000E+00 0.000E+00 0.425E-02
        33.229912      114.915526      166.901534    14    10     0     0     4   3.756 0.000E+00 0.000E+00 0.111E-03
       194.970010      180.427665      386.196369    15     0     0     0     5   3.840 0.172E-46 0.343E-46 0.486E-22
        57.254567       11.844429     1286.957985     1     0     0     0     4   1.560 0.172E-04 0.343E-04 0.000E+00
        51.378204       32.884899      927.596853     1     0     0     0     4   1.560 0.172E-04 0.343E-04 0.000E+00
       116.469202       70.550058      668.714295    10     0     0     0     8   3.360 0.172E-31 0.343E-31 0.889E-20
        57.884074      124.715457       70.313490    12    10     0     0     3   3.568 0.000E+00 0.000E+00 0.125E-03
       154.719971       93.712585       72.348555     6     4     0     0     2   2.832 0.000E+00 0.000E+00 0.420E-05
        76.931506      118.525874      682.106061    20     0     0     0     6   4.230 0.172E-61 0.343E-61 0.195E-23
       129.652366      113.759830     2075.583909     1     0     0     0     4   1.560 0.172E-04 0.343E-04 0.000E+00
        72.935096      195.157005      282.490223     6     0     0     0     8   2.830 0.172E-19 0.343E-19 0.145E-14
        86.314513      171.197338     1228.949864     1     0     0     0     2   1.560 0.172E-04 0.343E-04 0.000E+00
        12.959783      160.492750       94.339551     8    11     0     0     1   3.117 0.000E+00 0.000E+00 0.299E-03
        37.395648       99.975636      587.599734    12     0     0     0     3   3.570 0.172E-37 0.343E-37 0.773E-21
       199.344237       38.528400     1438.020603     1     0     0     0     3   1.560 0.172E-04 0.343E-04 0.000E+00
         2.470076        0.330357      180.536418     8    10     0     0     7   3.117 0.000E+00 0.000E+00 0.211E-03
       180.131109       90.913352     1344.035094     1     0     0     0     3   1.560 0.172E-04 0.343E-04 0.000E+00
        92.433881      170.491461      138.245294    13     7     0     0     5   3.664 0.000E+00 0.000E+00 0.624E-05
       118.167413      169.709737      691.073765    24     0     0     0     2   4.500 0.172E-73 0.343E-73 0.301E-24
        64.556375       46.922439      388.368970    11     0     0     0     2   3.470 0.172E-34 0.343E-34 0.243E-20
       199.498014      176.036191      779.627938    12     0     0     0     6   3.570 0.172E-37 0.343E-37 0.773E-21
       196.855819      130.746666      151.344618    13     5     0     0     6   3.664 0.000E+00 0.000E+00 0.446E-05
       167.599592       13.913029      255.831142     7     1     0     0     4   2.981 0.000E+00 0.000E+00 0.141E-05
       149.523570       24.503941      234.071743    10     2     0     0     6   3.357 0.000E+00 0.000E+00 0.226E-05
       153.742935       91.666508     1863.449411     1     0     0     0     5   1.560 0.172E-04 0.343E-04 0.000E+00