ITEM: TIMESTEP
0
ITEM: NUMBER OF ATOMS
         523
ITEM: BOX BOUNDS pp pp pp
  0.0000000E+00   200.000000000000     
  0.0000000E+00   200.000000000000     
  0.0000000E+00   5000.00000000000     
ITEM: ATOMS x y z f1 f2 f3 f4 orient radius rate_mig rate_rot rate_emit
         2.470076        0.330357      180.536418     8    11     0     0     7   3.117 0.000E+00 0.000E+00 0.479E-01
        58.487605      198.702774      218.865639    11     4     0     0     5   3.466 0.000E+00 0.000E+00 0.957E-03
        18.077024       95.755857      327.978975    17     0     0     0     4   4.010 0.234E-50 0.468E-50 0.378E-18
        29.205567       86.271280     2037.904918     1     0     0     0     8   1.560 0.234E-02 0.468E-02 0.000E+00
       192.681945       49.246727       64.439787    14     9     0     0     6   3.756 0.000E+00 0.000E+00 0.171E-01
         3.383076        8.990276       94.711516    24    15     0     0     8   4.495 0.000E+00 0.000E+00 0.273E-01
        53.686581       88.143623      695.932070    19     0     0     0     2   4.160 0.234E-56 0.468E-56 0.130E-18
       197.666948       80.736528      489.120152    16     0     0     0     5   3.930 0.234E-47 0.468E-47 0.691E-18
        44.320441       51.839916      773.015850    24     0     0     0     3   4.500 0.234E-71 0.468E-71 0.158E-19
        28.682362      100.261744       39.360714    18     5     0     0     1   4.084 0.000E+00 0.000E+00 0.109E-02
       184.819855       52.506930     1682.951395     1     0     0     0     3   1.560 0.234E-02 0.468E-02 0.000E+00
       117.318408      117.789184      106.004935    11    14     0     0     7   3.466 0.000E+00 0.000E+00 0.613E-01
       124.121270       61.993981      212.204042    14     2     0     0     7   3.756 0.000E+00 0.000E+00 0.574E-03
       185.426611       31.295317      486.032669    18     0     0     0     2   4.080 0.234E-53 0.468E-53 0.217E-18
       116.105942        4.551717      458.572817     9     0     0     0     8   3.240 0.234E-26 0.468E-26 0.463E-15
        79.016203        3.171207      685.268528    21     0     0     0     1   4.300 0.234E-62 0.468E-62 0.513E-19
         6.634799       20.574716      319.401105    14     0     0     0     2   3.760 0.234E-41 0.468E-41 0.274E-17
        98.237489        4.501858      325.001990     8     0     0     0     6   3.120 0.234E-23 0.468E-23 0.680E-11
        44.835199      141.851981     1408.735855     1     0     0     0     4   1.560 0.234E-02 0.468E-02 0.000E+00
       173.919202      110.405202      116.268054    12     7     0     0     7   3.568 0.000E+00 0.000E+00 0.132E-01
        89.106751       60.093647     1283.121625     1     0     0     0     8   1.560 0.234E-02 0.468E-02 0.000E+00
        10.229538      109.794347      161.628399    12     8     0     0     6   3.568 0.000E+00 0.000E+00 0.155E-01
        33.652471      128.282407      806.545984    26     0     0     0     5   4.620 0.234E-77 0.468E-77 0.803E-20
       120.987692       93.228463      419.160634    12     0     0     0     6   3.570 0.234E-35 0.468E-35 0.148E-16
       177.870505       23.881618       26.486996    14     4     0     0     1   3.756 0.000E+00 0.000E+00 0.939E-03
        14.356484        0.529404       92.326420     6     8     0     0     1   2.832 0.000E+00 0.000E+00 0.280E-01
       105.412705      181.900153      465.141268    20     0     0     0     6   4.230 0.234E-59 0.468E-59 0.805E-19
       103.094195       96.495586     1144.504814     1     0     0     0     4   1.560 0.234E-02 0.468E-02 0.000E+00
        85.548639       97.744102     1543.600608     1     0     0     0     1   1.560 0.234E-02 0.468E-02 0.000E+00
        65.273638       47.718646       48.153904    12    10     0     0     6   3.568 0.000E+00 0.000E+00 0.222E-01
         2.862109      118.480941      758.360725    18     0     0     0     3   4.080 0.234E-53 0.468E-53 0.217E-18
       141.897536       63.343014      565.356000    13     0     0     0     8   3.660 0.234E-38 0.468E-38 0.606E-17
        32.192202      118.320390      682.922112    13     0     0     0     5   3.660 0.234E-38 0.468E-38 0.606E-17
       120.531350       69.535966      495.664905     9     0     0     0     2   3.240 0.234E-26 0.468E-26 0.463E-15
        29.151122        2.868140      960.446513    25     0     0     0     2   4.560 0.234E-74 0.468E-74 0.111E-19
       192.165730      135.997317      620.823106    22     0     0     0     7   4.370 0.234E-65 0.468E-65 0.339E-19
        57.884074      124.715457       70.313490    12    10     0     0     2   3.568 0.000E+00 0.000E+00 0.222E-01
         9.048248      136.028364     1380.377043     1     0     0     0     7   1.560 0.234E-02 0.468E-02 0.000E+00
       125.251883       48.286411      660.119129    27     0     0     0     1   4.680 0.234E-80 0.468E-80 0.586E-20
       142.314409      191.032037       42.048257    14     3     0     0     3   3.756 0.000E+00 0.000E+00 0.762E-03
       192.180409       38.614958     1831.687539     1     0     0     0     6   1.560 0.234E-02 0.468E-02 0.000E+00
       175.179572      164.060722     1107.628214     1     0     0     0     5   1.560 0.234E-02 0.468E-02 0.000E+00
       147.232439      155.953909      174.482297    10     6     0     0     6   3.357 0.000E+00 0.000E+00 0.117E-01
       113.170984      198.539347       75.422456    19    13     0     0     1   4.158 0.000E+00 0.000E+00 0.252E-01
        83.069466       91.154192      385.800169    10     0     0     0     3   3.360 0.234E-29 0.468E-29 0.124E-15
        84.776346       17.674247      857.278091    24     0     0     0     5   4.500 0.234E-71 0.468E-71 0.158E-19
       120.053956       52.522876      703.534843    22     0     0     0     8   4.370 0.234E-65 0.468E-65 0.339E-19
       158.292624       78.586338      415.084022    19     0     0     0     7   4.160 0.234E-56 0.468E-56 0.130E-18
       154.982131      189.888104       89.663860     8    12     0     0     8   3.117 0.000E+00 0.000E+00 0.672E-01
       150.734745       44.339680      539.575542    12     0     0     0     3   3.570 0.234E-35 0.468E-35 0.148E-16
       100.094614       21.294259     1524.688661     1     0     0     0     4   1.560 0.234E-02 0.468E-02 0.000E+00
        91.242323      103.185768      131.290292    10     7     0     0     5   3.357 0.000E+00 0.000E+00 0.142E-01
        53.647173      107.492386      400.707070    11     0     0     0     7   3.470 0.234E-32 0.468E-32 0.402E-16
       102.452658      101.661715     1004.192504     1     0     0     0     1   1.560 0.234E-02 0.468E-02 0.000E+00
         4.254788      135.226066      559.526675    19     0     0     0     4   4.160 0.234E-56 0.468E-56 0.130E-18
       163.979689      116.460209       47.705366    11     6     0     0     5   3.466 0.000E+00 0.000E+00 0.138E-02
        90.409988       14.959585      315.807017    10     0     0     0     4   3.360 0.234E-29 0.468E-29 0.124E-15
        83.578519      100.506524      290.298083    11     2     0     0     6   3.466 0.000E+00 0.000E+00 0.577E-03
       146.028746       27.470077      281.148170     7     0     0     0     3   2.980 0.234E-20 0.468E-20 0.323E-09
        88.474965       34.211840      298.612400     9     0     0     0     6   3.240 0.234E-26 0.468E-26 0.463E-15
       156.174390       66.105243     1148.716210     1     0     0     0     7   1.560 0.234E-02 0.468E-02 0.000E+00
        69.408959      157.667286     1194.156418     1     0     0     0     2   1.560 0.234E-02 0.468E-02 0.000E+00
       138.248213       95.792369      529.222476    14     0     0     0     3   3.760 0.234E-41 0.468E-41 0.274E-17
       156.144721       56.550525      237.821346    10     1     0     0     6   3.357 0.000E+00 0.000E+00 0.360E-03
        76.230508      149.699902      269.608101    25     1     0     0     1   4.557 0.000E+00 0.000E+00 0.359E-03
        85.048966       55.698511      337.603253    10     1     0     0     8   3.357 0.000E+00 0.000E+00 0.360E-03
       129.452666       14.441000     1146.696729     1     0     0     0     7   1.560 0.234E-02 0.468E-02 0.000E+00
       180.158755      191.942447      191.116486    14     6     0     0     7   3.756 0.000E+00 0.000E+00 0.109E-01
        24.777135       20.821728     1363.459999     1     0     0     0     8   1.560 0.234E-02 0.468E-02 0.000E+00
       137.376661      191.591577     1037.341946    41     0     0     0     2   5.370 0.234-122 0.468-122 0.241E-21
       167.800373      167.717694       27.241053    11     3     0     0     8   3.466 0.000E+00 0.000E+00 0.768E-03
       144.497725       61.239522      321.732739    16     1     0     0     2   3.927 0.000E+00 0.000E+00 0.359E-03
         9.034998       29.961261      372.519227    12     0     0     0     8   3.570 0.234E-35 0.468E-35 0.148E-16
       158.729152      182.748925     1901.293352     1     0     0     0     7   1.560 0.234E-02 0.468E-02 0.000E+00
        74.125379      186.008205      224.895500    15     1     0     0     8   3.843 0.000E+00 0.000E+00 0.297E-02
        49.351751      199.911892      323.751254     8     0     0     0     8   3.120 0.234E-23 0.468E-23 0.680E-11
        58.214852        1.993577      279.149481     6     1     0     0     7   2.832 0.000E+00 0.000E+00 0.361E-03
       142.663830      129.976017      590.271989    23     0     0     0     1   4.430 0.234E-68 0.468E-68 0.228E-19
       172.770924       88.653687     1431.291959     1     0     0     0     3   1.560 0.234E-02 0.468E-02 0.000E+00
       136.157686      115.145489      382.870616     6     0     0     0     6   2.830 0.234E-17 0.468E-17 0.443E-11
       163.899657       47.470992      252.619155     8     1     0     0     7   3.117 0.000E+00 0.000E+00 0.360E-03
       125.181978       17.736169     1648.284296     1     0     0     0     5   1.560 0.234E-02 0.468E-02 0.000E+00
        30.441246      103.535968     2057.200242     1     0     0     0     7   1.560 0.234E-02 0.468E-02 0.000E+00
       169.600259      190.786053       58.845924     9     7     0     0     5   3.241 0.000E+00 0.000E+00 0.149E-01
       197.473397      165.572987      220.150275    13     4     0     0     6   3.664 0.000E+00 0.000E+00 0.943E-03
        72.878291        7.945426      166.329290    11     7     0     0     6   3.466 0.000E+00 0.000E+00 0.136E-01
        55.669824      128.780960     2048.050012     1     0     0     0     8   1.560 0.234E-02 0.468E-02 0.000E+00
        66.581329      110.348930      239.755886     8     2     0     0     8   3.117 0.000E+00 0.000E+00 0.580E-03
       139.698075      159.703354      387.870412     8     0     0     0     6   3.120 0.234E-23 0.468E-23 0.680E-11
        79.525387      166.645840       31.563814     6     2     0     0     8   2.832 0.000E+00 0.000E+00 0.586E-03
       134.691756       73.108936      514.584422    20     0     0     0     1   4.230 0.234E-59 0.468E-59 0.805E-19
        69.915281       31.162092      407.321537    11     0     0     0     4   3.470 0.234E-32 0.468E-32 0.402E-16
       168.245356      125.321838       79.504564     9    11     0     0     8   3.241 0.000E+00 0.000E+00 0.388E-01
        23.171388      155.084804       97.864350    17    17     0     0     5   4.007 0.000E+00 0.000E+00 0.533E-01
       106.579410      102.054590       59.121998     6    10     0     0     7   2.832 0.000E+00 0.000E+00 0.619E-01
        47.815967       75.836501      316.915706     9     0     0     0     6   3.240 0.234E-26 0.468E-26 0.463E-15
       148.202653      198.443104       84.509234    12     7     0     0     6   3.568 0.000E+00 0.000E+00 0.132E-01
        50.462968      182.691284      871.456278    34     0     0     0     1   5.050 0.234-101 0.468-101 0.950E-21
        94.866926        2.365819       19.328712     4     3     0     0     8   2.474 0.000E+00 0.000E+00 0.716E-02
       145.580067       45.528470     1799.235006     1     0     0     0     1   1.560 0.234E-02 0.468E-02 0.000E+00
        32.189829       34.669919      305.024077     9     1     0     0     3   3.241 0.000E+00 0.000E+00 0.360E-03
       118.756428       77.532862      163.896739    17    10     0     0     2   4.007 0.000E+00 0.000E+00 0.180E-01
       142.025835       25.090515      831.189079    14     0     0     0     6   3.760 0.234E-41 0.468E-41 0.274E-17
        29.144327       51.612086      654.601244    14     0     0     0     4   3.760 0.234E-41 0.468E-41 0.274E-17
       182.973458       80.026475      160.941458    13    13     0     0     5   3.664 0.000E+00 0.000E+00 0.365E-01
       136.253165       80.415379     2053.315930     1     0     0     0     4   1.560 0.234E-02 0.468E-02 0.000E+00
       197.204266       37.593889      237.783320     8     0     0     0     4   3.120 0.234E-23 0.468E-23 0.680E-11
        19.332793      160.432904     1212.358409     1     0     0     0     2   1.560 0.234E-02 0.468E-02 0.000E+00
       147.011756      187.597028      659.470206    20     0     0     0     5   4.230 0.234E-59 0.468E-59 0.805E-19
       156.833165       82.166430      500.425169    12     0     0     0     3   3.570 0.234E-35 0.468E-35 0.148E-16
        19.254229       79.038506      189.797689    18     6     0     0     7   4.084 0.000E+00 0.000E+00 0.127E-02
       191.645150      195.307816      230.540179    16     4     0     0     5   3.927 0.000E+00 0.000E+00 0.771E-02
        96.718835      183.605263     1382.287200     1     0     0     0     7   1.560 0.234E-02 0.468E-02 0.000E+00
       178.167335      159.217288       40.589806     7     7     0     0     2   2.981 0.000E+00 0.000E+00 0.175E-01
        43.644571      116.036595      124.681332    13    10     0     0     6   3.664 0.000E+00 0.000E+00 0.209E-01
       180.928504       22.893776      498.095555    14     0     0     0     4   3.760 0.234E-41 0.468E-41 0.274E-17
        65.967448       49.346885      650.917390    21     0     0     0     6   4.300 0.234E-62 0.468E-62 0.513E-19
        21.787236      148.157159      189.561989     6     2     0     0     6   2.832 0.000E+00 0.000E+00 0.586E-03
       168.492389       44.429160     1457.986140     1     0     0     0     5   1.560 0.234E-02 0.468E-02 0.000E+00
       138.780044      151.375606     2112.067177     1     0     0     0     7   1.560 0.234E-02 0.468E-02 0.000E+00
        91.102516       27.250869      230.658806     9     1     0     0     2   3.241 0.000E+00 0.000E+00 0.360E-03
       122.525432       82.015777      280.043208    15     1     0     0     6   3.843 0.000E+00 0.000E+00 0.297E-02
        10.605582       84.411499      697.701822    15     0     0     0     3   3.840 0.234E-44 0.468E-44 0.133E-17
       184.077770      140.936398      585.808387    15     0     0     0     3   3.840 0.234E-44 0.468E-44 0.133E-17
       180.615471       48.912377     1700.896609     1     0     0     0     3   1.560 0.234E-02 0.468E-02 0.000E+00
       158.619432       76.161732      107.038533    11    13     0     0     6   3.466 0.000E+00 0.000E+00 0.471E-01
        16.787617       66.296862       72.458717    10    12     0     0     5   3.357 0.000E+00 0.000E+00 0.427E-01
       175.392777       46.784464     1098.969216     1     0     0     0     2   1.560 0.234E-02 0.468E-02 0.000E+00
        80.195313       28.451130      592.027274    19     0     0     0     8   4.160 0.234E-56 0.468E-56 0.130E-18
        80.422664      138.339351      756.990888    16     0     0     0     6   3.930 0.234E-47 0.468E-47 0.691E-18
        39.553546       58.691464      282.306919     9     1     0     0     4   3.241 0.000E+00 0.000E+00 0.360E-03
       116.490358       58.226885      100.210725    10    18     0     0     8   3.357 0.000E+00 0.000E+00 0.328E+00
       156.951282      111.389702      216.727265    19     4     0     0     4   4.158 0.000E+00 0.000E+00 0.926E-03
       123.896019       60.025816       67.631162     8     8     0     0     8   3.117 0.000E+00 0.000E+00 0.202E-01
       172.909563      124.022744      340.917032    13     0     0     0     1   3.660 0.234E-38 0.468E-38 0.606E-17
         3.183738       87.720472      301.069663     8     1     0     0     3   3.117 0.000E+00 0.000E+00 0.360E-03
        82.658531      117.489808      437.260206    13     0     0     0     7   3.660 0.234E-38 0.468E-38 0.606E-17
        27.935057      130.500149     1526.995438     1     0     0     0     5   1.560 0.234E-02 0.468E-02 0.000E+00
        32.883714       95.003217     2119.574458     1     0     0     0     2   1.560 0.234E-02 0.468E-02 0.000E+00
        78.948477      186.130533      270.538431     9     0     0     0     8   3.240 0.234E-26 0.468E-26 0.463E-15
         9.321021      136.934427     1278.629864     1     0     0     0     7   1.560 0.234E-02 0.468E-02 0.000E+00
        42.156446       48.276714     1776.801051     1     0     0     0     6   1.560 0.234E-02 0.468E-02 0.000E+00
        52.189601       96.775709      434.766350    15     0     0     0     1   3.840 0.234E-44 0.468E-44 0.133E-17
       106.202312       45.892962     1186.983716     1     0     0     0     4   1.560 0.234E-02 0.468E-02 0.000E+00
       106.199210      145.446176      375.731000    11     0     0     0     6   3.470 0.234E-32 0.468E-32 0.402E-16
       140.998689       86.963348      101.502835     7     4     0     0     8   2.981 0.000E+00 0.000E+00 0.102E-02
        33.949085      189.655045      289.120468     6     0     0     0     2   2.830 0.234E-17 0.468E-17 0.443E-11
         7.068869      105.832722       86.135320    13     9     0     0     5   3.664 0.000E+00 0.000E+00 0.177E-01
       107.280029       69.512174      796.301420    21     0     0     0     3   4.300 0.234E-62 0.468E-62 0.513E-19
       187.099156       25.839670      594.451228    18     0     0     0     5   4.080 0.234E-53 0.468E-53 0.217E-18
       124.471473       44.007639      202.775747    17     5     0     0     1   4.007 0.000E+00 0.000E+00 0.912E-02
       140.277058      119.318535      725.001754    24     0     0     0     7   4.500 0.234E-71 0.468E-71 0.158E-19
       183.058259      157.405006      921.293093    31     0     0     0     5   4.900 0.234E-92 0.468E-92 0.193E-20
       167.082795      130.484526      510.113699    10     0     0     0     1   3.360 0.234E-29 0.468E-29 0.124E-15
       189.625262       48.658551       51.156701    14    11     0     0     4   3.756 0.000E+00 0.000E+00 0.235E-01
        60.221444      146.072946       44.664971     9     3     0     0     2   3.241 0.000E+00 0.000E+00 0.776E-03
       134.770674       31.589511      209.956311    14     4     0     0     7   3.756 0.000E+00 0.000E+00 0.939E-03
        13.317034       53.456427     1816.532029     1     0     0     0     2   1.560 0.234E-02 0.468E-02 0.000E+00
       162.106260       26.007547      264.802995    12     0     0     0     7   3.570 0.234E-35 0.468E-35 0.148E-16
       137.206159      159.188233      820.382391    22     0     0     0     8   4.370 0.234E-65 0.468E-65 0.339E-19
        14.297527      191.558534      818.868754    16     0     0     0     4   3.930 0.234E-47 0.468E-47 0.691E-18
       186.506977       27.125986      560.284272    23     0     0     0     4   4.430 0.234E-68 0.468E-68 0.228E-19
        17.214158      161.105156      239.248219    10     3     0     0     7   3.357 0.000E+00 0.000E+00 0.771E-03
       155.472320      182.582328      629.701769    20     0     0     0     7   4.230 0.234E-59 0.468E-59 0.805E-19
       133.901392      104.550800      300.260916     9     0     0     0     7   3.240 0.234E-26 0.468E-26 0.463E-15
        74.043489       38.564483     1751.374829     1     0     0     0     7   1.560 0.234E-02 0.468E-02 0.000E+00
       145.937555        1.583386      388.653396     6     0     0     0     6   2.830 0.234E-17 0.468E-17 0.443E-11
       122.847730      134.822810       83.015571    11     8     0     0     8   3.466 0.000E+00 0.000E+00 0.162E-01
        39.081644       34.912709     1198.816931     1     0     0     0     7   1.560 0.234E-02 0.468E-02 0.000E+00
       104.256922      191.293224      419.995838    18     0     0     0     2   4.080 0.234E-53 0.468E-53 0.217E-18
       154.114390      184.525554       75.340852    13    13     0     0     4   3.664 0.000E+00 0.000E+00 0.365E-01
        66.476216      145.932220     1155.364079     1     0     0     0     4   1.560 0.234E-02 0.468E-02 0.000E+00
        72.660095      132.359960      253.137131     7     2     0     0     1   2.981 0.000E+00 0.000E+00 0.583E-03
       127.976974      118.697515     1622.284697     1     0     0     0     8   1.560 0.234E-02 0.468E-02 0.000E+00
        63.585400      127.145171      101.709727    11    15     0     0     7   3.466 0.000E+00 0.000E+00 0.813E-01
        63.514784        9.564383      426.956287     9     0     0     0     3   3.240 0.234E-26 0.468E-26 0.463E-15
       134.295371      139.322942      167.019906    11     7     0     0     1   3.466 0.000E+00 0.000E+00 0.136E-01
        59.942700       23.938973      303.833771    18     0     0     0     2   4.080 0.234E-53 0.468E-53 0.217E-18
       170.898369      163.056464      297.043522    11     1     0     0     2   3.466 0.000E+00 0.000E+00 0.360E-03
        94.656289      139.871803      191.245201    24     8     0     0     8   4.495 0.000E+00 0.000E+00 0.156E-02
       156.333841      169.531465      887.246612     1     0     0     0     1   1.560 0.234E-02 0.468E-02 0.000E+00
        93.070350       90.751212      911.882230    45     0     0     0     5   5.540 0.234-134 0.468-134 0.126E-21
       121.818578       42.282754      474.555443    11     0     0     0     8   3.470 0.234E-32 0.468E-32 0.402E-16
        70.462996        1.567794      126.675654    12    17     0     0     2   3.568 0.000E+00 0.000E+00 0.117E+00
        15.647586      133.934744      233.294877    17     2     0     0     3   4.007 0.000E+00 0.000E+00 0.573E-03
        54.975127       27.033315       91.402026    14    12     0     0     5   3.756 0.000E+00 0.000E+00 0.277E-01
       131.003527      135.578536      417.679856    15     0     0     0     4   3.840 0.234E-44 0.468E-44 0.133E-17
       113.483827        2.100829     1472.217869     1     0     0     0     1   1.560 0.234E-02 0.468E-02 0.000E+00
        33.819008      185.434281      627.026582    16     0     0     0     8   3.930 0.234E-47 0.468E-47 0.691E-18
       198.706249       28.854689      618.456514    26     0     0     0     2   4.620 0.234E-77 0.468E-77 0.803E-20
       196.991117      139.511153      189.150492    12     5     0     0     3   3.568 0.000E+00 0.000E+00 0.944E-02
        33.229912      114.915526      166.901534    14     9     0     0     4   3.756 0.000E+00 0.000E+00 0.171E-01
       164.514540        0.054582      184.467838    18    11     0     0     3   4.084 0.000E+00 0.000E+00 0.200E-01
       105.636755       96.246122       77.162972    12    11     0     0     3   3.568 0.000E+00 0.000E+00 0.269E-01
        27.083587       16.609617      372.239203     9     0     0     0     2   3.240 0.234E-26 0.468E-26 0.463E-15
       174.627327      179.491471      990.771046     1     0     0     0     7   1.560 0.234E-02 0.468E-02 0.000E+00
       177.495932       85.126180     1842.422383     1     0     0     0     3   1.560 0.234E-02 0.468E-02 0.000E+00
       174.794023      145.135793      574.364041     7     0     0     0     5   2.980 0.234E-20 0.468E-20 0.323E-09
        71.939531      165.739158     1270.086937     1     0     0     0     8   1.560 0.234E-02 0.468E-02 0.000E+00
        93.024411      139.894656      625.214478    18     0     0     0     3   4.080 0.234E-53 0.468E-53 0.217E-18
        84.249420       51.644100      299.627423     8     0     0     0     1   3.120 0.234E-23 0.468E-23 0.680E-11
        83.675030       86.362751      489.752464    17     0     0     0     5   4.010 0.234E-50 0.468E-50 0.378E-18
       166.500899       84.496367      769.340898    20     0     0     0     3   4.230 0.234E-59 0.468E-59 0.805E-19
        74.953408       16.705855      123.657347     8    13     0     0     8   3.117 0.000E+00 0.000E+00 0.984E-01
       153.043884      168.646667     1544.242155     1     0     0     0     6   1.560 0.234E-02 0.468E-02 0.000E+00
       197.314632       79.041790      128.483059     7    14     0     0     1   2.981 0.000E+00 0.000E+00 0.254E+00
       157.066830       30.971370      286.115563    11     0     0     0     2   3.470 0.234E-32 0.468E-32 0.402E-16
        16.698661      154.469899      359.965798    10     0     0     0     7   3.360 0.234E-29 0.468E-29 0.124E-15
        21.455098      170.980206      143.003419    13    18     0     0     3   3.664 0.000E+00 0.000E+00 0.123E+00
        74.651841       10.524273      640.671566    20     0     0     0     3   4.230 0.234E-59 0.468E-59 0.805E-19
       163.759382      194.260116      700.347634    26     0     0     0     8   4.620 0.234E-77 0.468E-77 0.803E-20
        11.897631       96.102907      270.102150    14     2     0     0     1   3.756 0.000E+00 0.000E+00 0.574E-03
        50.483664       55.314263      342.001508    11     1     0     0     2   3.466 0.000E+00 0.000E+00 0.360E-03
        76.200416       95.303656      155.468000    12    12     0     0     2   3.568 0.000E+00 0.000E+00 0.327E-01
        81.948468       71.784479      726.114061    13     0     0     0     2   3.660 0.234E-38 0.468E-38 0.606E-17
       189.274453      144.939571      795.019819    19     0     0     0     4   4.160 0.234E-56 0.468E-56 0.130E-18
        77.048260      155.468386      578.055124    14     0     0     0     8   3.760 0.234E-41 0.468E-41 0.274E-17
        64.370377      170.845031     1349.360829     1     0     0     0     8   1.560 0.234E-02 0.468E-02 0.000E+00
       119.343147       98.027318       54.225113     9     6     0     0     7   3.241 0.000E+00 0.000E+00 0.147E-02
       178.642297      131.002360      373.665615    11     0     0     0     7   3.470 0.234E-32 0.468E-32 0.402E-16
         9.968392      150.849465      389.379456    15     0     0     0     8   3.840 0.234E-44 0.468E-44 0.133E-17
        11.660612       59.848489     1718.597695     1     0     0     0     6   1.560 0.234E-02 0.468E-02 0.000E+00
       167.556984      125.181580     1113.608925     1     0     0     0     5   1.560 0.234E-02 0.468E-02 0.000E+00
        81.740453       40.801116      619.303770    11     0     0     0     7   3.470 0.234E-32 0.468E-32 0.402E-16
       118.313144      104.423288      852.467424    32     0     0     0     1   4.950 0.234E-95 0.468E-95 0.151E-20
       122.726659       38.649775      783.797179    24     0     0     0     8   4.500 0.234E-71 0.468E-71 0.158E-19
       111.711104      144.736190       33.056811     6     6     0     0     7   2.832 0.000E+00 0.000E+00 0.149E-01
       195.731233       36.403965      129.665418     8     8     0     0     6   3.117 0.000E+00 0.000E+00 0.202E-01
       194.970010      180.427665      386.196369    15     0     0     0     5   3.840 0.234E-44 0.468E-44 0.133E-17
        57.254567       11.844429     1286.957985     1     0     0     0     4   1.560 0.234E-02 0.468E-02 0.000E+00
        51.378204       32.884899      927.596853     1     0     0     0     4   1.560 0.234E-02 0.468E-02 0.000E+00
       116.469202       70.550058      668.714295    10     0     0     0     8   3.360 0.234E-29 0.468E-29 0.124E-15
       129.655182       26.490380      103.759805    10     9     0     0     4   3.357 0.000E+00 0.000E+00 0.211E-01
        61.523283       64.260821      107.500323    18    23     0     0     7   4.084 0.000E+00 0.000E+00 0.165E+00
        76.931506      118.525874      682.106061    20     0     0     0     6   4.230 0.234E-59 0.468E-59 0.805E-19
       128.069791      112.177255     2074.001334     1     0     0     0     2   1.560 0.234E-02 0.468E-02 0.000E+00
        72.935096      195.157005      282.490223     6     0     0     0     8   2.830 0.234E-17 0.468E-17 0.443E-11
        86.314513      171.197338     1228.949864     1     0     0     0     2   1.560 0.234E-02 0.468E-02 0.000E+00
        12.959783      160.492750       94.339551     8    11     0     0     1   3.117 0.000E+00 0.000E+00 0.479E-01
        37.395648       99.975636      587.599734    12     0     0     0     3   3.570 0.234E-35 0.468E-35 0.148E-16
         0.926812       36.945825     1439.603178     1     0     0     0     3   1.560 0.234E-02 0.468E-02 0.000E+00
        14.620965       42.030617       75.171912    17    14     0     0     4   4.007 0.000E+00 0.000E+00 0.319E-01
       181.713684       89.330777     1342.452519     1     0     0     0     5   1.560 0.234E-02 0.468E-02 0.000E+00
        29.094753      135.561647      133.338506     7    13     0     0     7   2.981 0.000E+00 0.000E+00 0.154E+00
       118.167413      169.709737      691.073765    24     0     0     0     2   4.500 0.234E-71 0.468E-71 0.158E-19
        64.556375       46.922439      388.368970    11     0     0     0     2   3.470 0.234E-32 0.468E-32 0.402E-16
       199.498014      176.036191      779.627938    12     0     0     0     6   3.570 0.234E-35 0.468E-35 0.148E-16
       196.855819      130.746666      151.344618    13     5     0     0     6   3.664 0.000E+00 0.000E+00 0.113E-02
       167.599592       13.913029      255.831142     7     1     0     0     4   2.981 0.000E+00 0.000E+00 0.361E-03
       149.523570       24.503941      234.071743    10     2     0     0     6   3.357 0.000E+00 0.000E+00 0.578E-03
       153.742935       91.666508     1863.449411     1     0     0     0     5   1.560 0.234E-02 0.468E-02 0.000E+00