ITEM: TIMESTEP
0
ITEM: NUMBER OF ATOMS
         523
ITEM: BOX BOUNDS pp pp pp
  0.0000000E+00   200.000000000000     
  0.0000000E+00   200.000000000000     
  0.0000000E+00   5000.00000000000     
ITEM: ATOMS x y z f1 f2 f3 f4 orient radius rate_mig rate_rot rate_emit
        65.273638       47.718646       48.153904    12    11     0     0     8   3.568 0.000E+00 0.000E+00 0.932E-01
        74.125379      186.008205      224.895500    15     0     0     0     8   3.840 0.766E-44 0.153E-43 0.156E-16
        18.077024       95.755857      327.978975    17     0     0     0     4   4.010 0.766E-50 0.153E-49 0.465E-17
        29.205567       86.271280     2037.904918     1     0     0     0     8   1.560 0.766E-02 0.153E-01 0.000E+00
       158.733123      142.426843       92.670934     9    10     0     0     5   3.241 0.000E+00 0.000E+00 0.102E+00
        87.167441      168.430487       78.865369     8     9     0     0     1   3.117 0.000E+00 0.000E+00 0.911E-01
        53.686581       88.143623      695.932070    19     0     0     0     2   4.160 0.766E-56 0.153E-55 0.166E-17
       197.666948       80.736528      489.120152    16     0     0     0     5   3.930 0.766E-47 0.153E-46 0.833E-17
        44.320441       51.839916      773.015850    24     0     0     0     3   4.500 0.766E-71 0.153E-70 0.218E-18
        28.682362      100.261744       39.360714    18     5     0     0     1   4.084 0.000E+00 0.000E+00 0.417E-02
       183.237280       50.924355     1681.368820     1     0     0     0     2   1.560 0.766E-02 0.153E-01 0.000E+00
       195.175145       78.858377       17.046681     9     3     0     0     4   3.241 0.000E+00 0.000E+00 0.296E-02
       124.121270       61.993981      212.204042    14     2     0     0     7   3.756 0.000E+00 0.000E+00 0.219E-02
       185.426611       31.295317      486.032669    18     0     0     0     2   4.080 0.766E-53 0.153E-52 0.272E-17
       116.105942        4.551717      458.572817     9     0     0     0     8   3.240 0.766E-26 0.153E-25 0.443E-14
        79.016203        3.171207      685.268528    21     0     0     0     1   4.300 0.766E-62 0.153E-61 0.678E-18
         6.634799       20.574716      319.401105    14     0     0     0     2   3.760 0.766E-41 0.153E-40 0.314E-16
        98.237489        4.501858      325.001990     8     0     0     0     6   3.120 0.766E-23 0.153E-22 0.467E-10
        44.835199      141.851981     1408.735855     1     0     0     0     4   1.560 0.766E-02 0.153E-01 0.000E+00
        24.010178       12.065779       94.375933    16    15     0     0     7   3.927 0.000E+00 0.000E+00 0.139E+00
        87.524176       61.676222     1281.539050     1     0     0     0     4   1.560 0.766E-02 0.153E-01 0.000E+00
       167.800373      167.717694       27.241053    11     5     0     0     3   3.466 0.000E+00 0.000E+00 0.440E-02
        33.652471      128.282407      806.545984    26     0     0     0     5   4.620 0.766E-77 0.153E-76 0.113E-18
       120.987692       93.228463      419.160634    12     0     0     0     6   3.570 0.766E-35 0.153E-34 0.160E-15
       177.870505       23.881618       26.486996    14     4     0     0     1   3.756 0.000E+00 0.000E+00 0.358E-02
       168.245356      125.321838       79.504564     9    13     0     0     5   3.241 0.000E+00 0.000E+00 0.241E+00
       105.412705      181.900153      465.141268    20     0     0     0     6   4.230 0.766E-59 0.153E-58 0.105E-17
       101.511620       98.078161     1142.922239     1     0     0     0     4   1.560 0.766E-02 0.153E-01 0.000E+00
        85.548639       97.744102     1543.600608     1     0     0     0     1   1.560 0.766E-02 0.153E-01 0.000E+00
        23.171388      155.084804       97.864350    17    19     0     0     6   4.007 0.000E+00 0.000E+00 0.267E+00
         2.862109      118.480941      758.360725    18     0     0     0     3   4.080 0.766E-53 0.153E-52 0.272E-17
       141.897536       63.343014      565.356000    13     0     0     0     8   3.660 0.766E-38 0.153E-37 0.676E-16
        32.192202      118.320390      682.922112    13     0     0     0     5   3.660 0.766E-38 0.153E-37 0.676E-16
       120.531350       69.535966      495.664905     9     0     0     0     2   3.240 0.766E-26 0.153E-25 0.443E-14
        29.151122        2.868140      960.446513    25     0     0     0     2   4.560 0.766E-74 0.153E-73 0.155E-18
       192.165730      135.997317      620.823106    22     0     0     0     7   4.370 0.766E-65 0.153E-64 0.455E-18
       154.982131      189.888104       89.663860     8    11     0     0     5   3.117 0.000E+00 0.000E+00 0.163E+00
         7.465673      134.445789     1381.959618     1     0     0     0     7   1.560 0.766E-02 0.153E-01 0.000E+00
       125.251883       48.286411      660.119129    27     0     0     0     1   4.680 0.766E-80 0.153E-79 0.837E-19
       142.314409      191.032037       42.048257    14     3     0     0     3   3.756 0.000E+00 0.000E+00 0.290E-02
       192.180409       38.614958     1831.687539     1     0     0     0     6   1.560 0.766E-02 0.153E-01 0.000E+00
       176.762147      162.478147     1106.045639     1     0     0     0     5   1.560 0.766E-02 0.153E-01 0.000E+00
       147.232439      155.953909      174.482297    10     6     0     0     6   3.357 0.000E+00 0.000E+00 0.413E-01
        21.455098      170.980206      143.003419    13    13     0     0     4   3.664 0.000E+00 0.000E+00 0.126E+00
        83.069466       91.154192      385.800169    10     0     0     0     3   3.360 0.766E-29 0.153E-28 0.125E-14
        84.776346       17.674247      857.278091    24     0     0     0     5   4.500 0.766E-71 0.153E-70 0.218E-18
       120.053956       52.522876      703.534843    22     0     0     0     8   4.370 0.766E-65 0.153E-64 0.455E-18
       158.292624       78.586338      415.084022    19     0     0     0     7   4.160 0.766E-56 0.153E-55 0.166E-17
       122.011297      186.061425       87.832890    10    10     0     0     3   3.357 0.000E+00 0.000E+00 0.910E-01
       150.734745       44.339680      539.575542    12     0     0     0     3   3.570 0.766E-35 0.153E-34 0.160E-15
       100.094614       21.294259     1524.688661     1     0     0     0     4   1.560 0.766E-02 0.153E-01 0.000E+00
        91.242323      103.185768      131.290292    10     7     0     0     5   3.357 0.000E+00 0.000E+00 0.497E-01
        53.647173      107.492386      400.707070    11     0     0     0     7   3.470 0.766E-32 0.153E-31 0.419E-15
       102.452658      101.661715     1004.192504     1     0     0     0     1   1.560 0.766E-02 0.153E-01 0.000E+00
         4.254788      135.226066      559.526675    19     0     0     0     4   4.160 0.766E-56 0.153E-55 0.166E-17
       163.979689      116.460209       47.705366    11     6     0     0     5   3.466 0.000E+00 0.000E+00 0.523E-02
        90.409988       14.959585      315.807017    10     0     0     0     4   3.360 0.766E-29 0.153E-28 0.125E-14
        83.578519      100.506524      290.298083    11     2     0     0     6   3.466 0.000E+00 0.000E+00 0.220E-02
       146.028746       27.470077      281.148170     7     0     0     0     3   2.980 0.766E-20 0.153E-19 0.194E-08
        88.474965       34.211840      298.612400     9     0     0     0     6   3.240 0.766E-26 0.153E-25 0.443E-14
       156.174390       66.105243     1148.716210     1     0     0     0     7   1.560 0.766E-02 0.153E-01 0.000E+00
        69.408959      157.667286     1194.156418     1     0     0     0     2   1.560 0.766E-02 0.153E-01 0.000E+00
       138.248213       95.792369      529.222476    14     0     0     0     3   3.760 0.766E-41 0.153E-40 0.314E-16
       156.144721       56.550525      237.821346    10     1     0     0     6   3.357 0.000E+00 0.000E+00 0.137E-02
        76.230508      149.699902      269.608101    25     1     0     0     1   4.557 0.000E+00 0.000E+00 0.137E-02
        85.048966       55.698511      337.603253    10     1     0     0     8   3.357 0.000E+00 0.000E+00 0.137E-02
       129.452666       14.441000     1146.696729     1     0     0     0     7   1.560 0.766E-02 0.153E-01 0.000E+00
        47.354822       84.449048      158.471204     9    11     0     0     6   3.241 0.000E+00 0.000E+00 0.133E+00
        24.777135       20.821728     1363.459999     1     0     0     0     8   1.560 0.766E-02 0.153E-01 0.000E+00
       137.376661      191.591577     1037.341946    41     0     0     0     2   5.370 0.766-122 0.153-121 0.386E-20
       123.896019       60.025816       67.631162     8     8     0     0     8   3.117 0.000E+00 0.000E+00 0.702E-01
       144.497725       61.239522      321.732739    16     1     0     0     2   3.927 0.000E+00 0.000E+00 0.137E-02
         9.034998       29.961261      372.519227    12     0     0     0     8   3.570 0.766E-35 0.153E-34 0.160E-15
       158.729152      182.748925     1901.293352     1     0     0     0     8   1.560 0.766E-02 0.153E-01 0.000E+00
       194.953378       31.553957      120.838931    11    13     0     0     6   3.466 0.000E+00 0.000E+00 0.161E+00
        49.351751      199.911892      323.751254     8     0     0     0     8   3.120 0.766E-23 0.153E-22 0.467E-10
        58.214852        1.993577      279.149481     6     1     0     0     7   2.832 0.000E+00 0.000E+00 0.138E-02
       142.663830      129.976017      590.271989    23     0     0     0     1   4.430 0.766E-68 0.153E-67 0.310E-18
       172.770924       88.653687     1431.291959     1     0     0     0     3   1.560 0.766E-02 0.153E-01 0.000E+00
       136.157686      115.145489      382.870616     6     0     0     0     6   2.830 0.766E-17 0.153E-16 0.308E-10
       163.899657       47.470992      252.619155     8     1     0     0     7   3.117 0.000E+00 0.000E+00 0.137E-02
       125.181978       17.736169     1648.284296     1     0     0     0     5   1.560 0.766E-02 0.153E-01 0.000E+00
        28.858671      101.953393     2058.782817     1     0     0     0     7   1.560 0.766E-02 0.153E-01 0.000E+00
       173.919202      110.405202      116.268054    12     8     0     0     1   3.568 0.000E+00 0.000E+00 0.546E-01
       197.473397      165.572987      220.150275    13     4     0     0     6   3.664 0.000E+00 0.000E+00 0.359E-02
        62.596376      142.325975      174.362461    17     5     0     0     7   4.007 0.000E+00 0.000E+00 0.323E-01
        55.669824      128.780960     2048.050012     1     0     0     0     8   1.560 0.766E-02 0.153E-01 0.000E+00
        66.581329      110.348930      239.755886     8     2     0     0     8   3.117 0.000E+00 0.000E+00 0.221E-02
       139.698075      159.703354      387.870412     8     0     0     0     6   3.120 0.766E-23 0.153E-22 0.467E-10
        79.525387      166.645840       31.563814     6     2     0     0     8   2.832 0.000E+00 0.000E+00 0.223E-02
       134.691756       73.108936      514.584422    20     0     0     0     1   4.230 0.766E-59 0.153E-58 0.105E-17
        69.915281       31.162092      407.321537    11     0     0     0     4   3.470 0.766E-32 0.153E-31 0.419E-15
       137.388064       42.145909      116.539994     9    11     0     0     8   3.241 0.000E+00 0.000E+00 0.133E+00
       131.024633      110.421748      159.034370    10    10     0     0     8   3.357 0.000E+00 0.000E+00 0.910E-01
        74.953408       16.705855      123.657347     8    11     0     0     2   3.117 0.000E+00 0.000E+00 0.163E+00
        47.815967       75.836501      316.915706     9     0     0     0     6   3.240 0.766E-26 0.153E-25 0.443E-14
       148.646724       11.381769      118.995798    10    13     0     0     2   3.357 0.000E+00 0.000E+00 0.192E+00
        50.462968      182.691284      871.456278    34     0     0     0     1   5.050 0.766-101 0.153-100 0.145E-19
       113.170984      198.539347       75.422456    19    12     0     0     4   4.158 0.000E+00 0.000E+00 0.770E-01
       147.162642       47.111045     1800.817581     1     0     0     0     1   1.560 0.766E-02 0.153E-01 0.000E+00
        32.189829       34.669919      305.024077     9     1     0     0     3   3.241 0.000E+00 0.000E+00 0.137E-02
        63.585400      127.145171      101.709727    11    11     0     0     6   3.466 0.000E+00 0.000E+00 0.102E+00
       142.025835       25.090515      831.189079    14     0     0     0     6   3.760 0.766E-41 0.153E-40 0.314E-16
        29.144327       51.612086      654.601244    14     0     0     0     4   3.760 0.766E-41 0.153E-40 0.314E-16
       110.532367      164.015391       40.731932     7     6     0     0     4   2.981 0.000E+00 0.000E+00 0.476E-01
       136.253165       80.415379     2053.315930     1     0     0     0     4   1.560 0.766E-02 0.153E-01 0.000E+00
       197.204266       37.593889      237.783320     8     0     0     0     4   3.120 0.766E-23 0.153E-22 0.467E-10
        20.915368      158.850329     1210.775834     1     0     0     0     5   1.560 0.766E-02 0.153E-01 0.000E+00
       147.011756      187.597028      659.470206    20     0     0     0     5   4.230 0.766E-59 0.153E-58 0.105E-17
       156.833165       82.166430      500.425169    12     0     0     0     3   3.570 0.766E-35 0.153E-34 0.160E-15
       158.619432       76.161732      107.038533    11    12     0     0     6   3.466 0.000E+00 0.000E+00 0.127E+00
        12.959783      160.492750       94.339551     8     8     0     0     3   3.117 0.000E+00 0.000E+00 0.702E-01
        96.718835      183.605263     1382.287200     1     0     0     0     7   1.560 0.766E-02 0.153E-01 0.000E+00
       178.167335      159.217288       40.589806     7     7     0     0     2   2.981 0.000E+00 0.000E+00 0.610E-01
       185.653702       33.368032      162.772698     6     9     0     0     5   2.832 0.000E+00 0.000E+00 0.139E+00
       180.928504       22.893776      498.095555    14     0     0     0     4   3.760 0.766E-41 0.153E-40 0.314E-16
        65.967448       49.346885      650.917390    21     0     0     0     6   4.300 0.766E-62 0.153E-61 0.678E-18
        21.787236      148.157159      189.561989     6     2     0     0     6   2.832 0.000E+00 0.000E+00 0.223E-02
       166.909814       46.011735     1456.403565     1     0     0     0     4   1.560 0.766E-02 0.153E-01 0.000E+00
       138.780044      151.375606     2112.067177     1     0     0     0     7   1.560 0.766E-02 0.153E-01 0.000E+00
        91.102516       27.250869      230.658806     9     1     0     0     2   3.241 0.000E+00 0.000E+00 0.137E-02
       122.525432       82.015777      280.043208    15     1     0     0     6   3.843 0.000E+00 0.000E+00 0.105E-01
        10.605582       84.411499      697.701822    15     0     0     0     3   3.840 0.766E-44 0.153E-43 0.156E-16
       184.077770      140.936398      585.808387    15     0     0     0     3   3.840 0.766E-44 0.153E-43 0.156E-16
       180.615471       48.912377     1700.896609     1     0     0     0     3   1.560 0.766E-02 0.153E-01 0.000E+00
       129.655182       26.490380      103.759805    10     9     0     0     7   3.357 0.000E+00 0.000E+00 0.735E-01
       134.295371      139.322942      167.019906    11     9     0     0     5   3.466 0.000E+00 0.000E+00 0.686E-01
       175.392777       46.784464     1098.969216     1     0     0     0     2   1.560 0.766E-02 0.153E-01 0.000E+00
        80.195313       28.451130      592.027274    19     0     0     0     8   4.160 0.766E-56 0.153E-55 0.166E-17
        80.422664      138.339351      756.990888    16     0     0     0     6   3.930 0.766E-47 0.153E-46 0.833E-17
        39.553546       58.691464      282.306919     9     1     0     0     4   3.241 0.000E+00 0.000E+00 0.137E-02
        66.694939       91.046582      185.777667    10     3     0     0     4   3.357 0.000E+00 0.000E+00 0.294E-02
       156.951282      111.389702      216.727265    19     4     0     0     4   4.158 0.000E+00 0.000E+00 0.353E-02
       119.343147       98.027318       54.225113     9     6     0     0     5   3.241 0.000E+00 0.000E+00 0.556E-02
       172.909563      124.022744      340.917032    13     0     0     0     1   3.660 0.766E-38 0.153E-37 0.676E-16
         3.183738       87.720472      301.069663     8     1     0     0     3   3.117 0.000E+00 0.000E+00 0.137E-02
        82.658531      117.489808      437.260206    13     0     0     0     7   3.660 0.766E-38 0.153E-37 0.676E-16
        27.935057      130.500149     1526.995438     1     0     0     0     5   1.560 0.766E-02 0.153E-01 0.000E+00
        32.883714       95.003217     2119.574458     1     0     0     0     2   1.560 0.766E-02 0.153E-01 0.000E+00
        78.948477      186.130533      270.538431     9     0     0     0     8   3.240 0.766E-26 0.153E-25 0.443E-14
         7.738446      135.351852     1280.212439     1     0     0     0     7   1.560 0.766E-02 0.153E-01 0.000E+00
        42.156446       48.276714     1776.801051     1     0     0     0     6   1.560 0.766E-02 0.153E-01 0.000E+00
        52.189601       96.775709      434.766350    15     0     0     0     1   3.840 0.766E-44 0.153E-43 0.156E-16
       106.202312       45.892962     1186.983716     1     0     0     0     4   1.560 0.766E-02 0.153E-01 0.000E+00
       106.199210      145.446176      375.731000    11     0     0     0     6   3.470 0.766E-32 0.153E-31 0.419E-15
       182.536515      123.660241      154.057776    12    12     0     0     6   3.568 0.000E+00 0.000E+00 0.113E+00
        33.949085      189.655045      289.120468     6     0     0     0     2   2.830 0.766E-17 0.153E-16 0.308E-10
        14.620965       42.030617       75.171912    17    15     0     0     5   4.007 0.000E+00 0.000E+00 0.129E+00
       107.280029       69.512174      796.301420    21     0     0     0     3   4.300 0.766E-62 0.153E-61 0.678E-18
       187.099156       25.839670      594.451228    18     0     0     0     5   4.080 0.766E-53 0.153E-52 0.272E-17
       124.471473       44.007639      202.775747    17     5     0     0     1   4.007 0.000E+00 0.000E+00 0.323E-01
       140.277058      119.318535      725.001754    24     0     0     0     7   4.500 0.766E-71 0.153E-70 0.218E-18
       183.058259      157.405006      921.293093    31     0     0     0     5   4.900 0.766E-92 0.153E-91 0.288E-19
       167.082795      130.484526      510.113699    10     0     0     0     1   3.360 0.766E-29 0.153E-28 0.125E-14
        43.644571      116.036595      124.681332    13    11     0     0     5   3.664 0.000E+00 0.000E+00 0.868E-01
       122.167492       39.868017      135.847786    16    14     0     0     3   3.927 0.000E+00 0.000E+00 0.118E+00
       134.770674       31.589511      209.956311    14     4     0     0     7   3.756 0.000E+00 0.000E+00 0.358E-02
        13.317034       53.456427     1819.697179     1     0     0     0     7   1.560 0.766E-02 0.153E-01 0.000E+00
       162.106260       26.007547      264.802995    12     0     0     0     7   3.570 0.766E-35 0.153E-34 0.160E-15
       137.206159      159.188233      820.382391    22     0     0     0     8   4.370 0.766E-65 0.153E-64 0.455E-18
        14.297527      191.558534      818.868754    16     0     0     0     4   3.930 0.766E-47 0.153E-46 0.833E-17
       186.506977       27.125986      560.284272    23     0     0     0     4   4.430 0.766E-68 0.153E-67 0.310E-18
        17.214158      161.105156      239.248219    10     3     0     0     7   3.357 0.000E+00 0.000E+00 0.294E-02
       155.472320      182.582328      629.701769    20     0     0     0     7   4.230 0.766E-59 0.153E-58 0.105E-17
       115.982246      192.469510      202.267744    16    10     0     0     4   3.927 0.000E+00 0.000E+00 0.650E-01
        74.043489       38.564483     1751.374829     1     0     0     0     7   1.560 0.766E-02 0.153E-01 0.000E+00
       145.937555        1.583386      388.653396     6     0     0     0     6   2.830 0.766E-17 0.153E-16 0.308E-10
       133.901392      104.550800      300.260916     9     1     0     0     6   3.241 0.000E+00 0.000E+00 0.137E-02
        39.081644       34.912709     1198.816931     1     0     0     0     7   1.560 0.766E-02 0.153E-01 0.000E+00
       104.256922      191.293224      419.995838    18     0     0     0     2   4.080 0.766E-53 0.153E-52 0.272E-17
       116.490358       58.226885      100.210725    10    17     0     0     5   3.357 0.000E+00 0.000E+00 0.716E+00
        68.058791      144.349645     1153.781504     1     0     0     0     5   1.560 0.766E-02 0.153E-01 0.000E+00
        72.660095      132.359960      253.137131     7     2     0     0     1   2.981 0.000E+00 0.000E+00 0.222E-02
       127.976974      118.697515     1622.284697     1     0     0     0     8   1.560 0.766E-02 0.153E-01 0.000E+00
       149.233474      171.371095      117.226682    22    15     0     0     3   4.367 0.000E+00 0.000E+00 0.101E+00
        63.514784        9.564383      426.956287     9     0     0     0     3   3.240 0.766E-26 0.153E-25 0.443E-14
        36.360304       69.880422      158.509075    10     7     0     0     6   3.357 0.000E+00 0.000E+00 0.497E-01
        59.942700       23.938973      303.833771    18     0     0     0     2   4.080 0.766E-53 0.153E-52 0.272E-17
       170.898369      163.056464      297.043522    11     1     0     0     2   3.466 0.000E+00 0.000E+00 0.137E-02
       118.756428       77.532862      163.896739    17    11     0     0     8   4.007 0.000E+00 0.000E+00 0.723E-01
       156.333841      169.531465      887.246612     1     0     0     0     1   1.560 0.766E-02 0.153E-01 0.000E+00
        93.070350       90.751212      911.882230    45     0     0     0     5   5.540 0.766-134 0.153-133 0.207E-20
       121.818578       42.282754      474.555443    11     0     0     0     8   3.470 0.766E-32 0.153E-31 0.419E-15
        99.749110      169.042280      201.817924    13     3     0     0     1   3.664 0.000E+00 0.000E+00 0.291E-02
        15.647586      133.934744      233.294877    17     3     0     0     7   4.007 0.000E+00 0.000E+00 0.289E-02
        76.507429      126.945405      222.564160    15     5     0     0     6   3.843 0.000E+00 0.000E+00 0.326E-01
       131.003527      135.578536      417.679856    15     0     0     0     4   3.840 0.766E-44 0.153E-43 0.156E-16
       113.483827        2.100829     1472.217869     1     0     0     0     1   1.560 0.766E-02 0.153E-01 0.000E+00
        33.819008      185.434281      627.026582    16     0     0     0     8   3.930 0.766E-47 0.153E-46 0.833E-17
       198.706249       28.854689      618.456514    26     0     0     0     2   4.620 0.766E-77 0.153E-76 0.113E-18
        39.214112       34.420921      130.047918    18    19     0     0     7   4.084 0.000E+00 0.000E+00 0.238E+00
        33.229912      114.915526      166.901534    14     9     0     0     4   3.756 0.000E+00 0.000E+00 0.600E-01
       189.625262       48.658551       51.156701    14    10     0     0     4   3.756 0.000E+00 0.000E+00 0.697E-01
        37.796010      164.756819      163.573743    11    11     0     0     8   3.466 0.000E+00 0.000E+00 0.102E+00
        27.083587       16.609617      372.239203     9     0     0     0     2   3.240 0.766E-26 0.153E-25 0.443E-14
       171.462177      182.656621      987.605896     1     0     0     0     4   1.560 0.766E-02 0.153E-01 0.000E+00
       177.495932       85.126180     1842.422383     1     0     0     0     4   1.560 0.766E-02 0.153E-01 0.000E+00
       174.794023      145.135793      574.364041     7     0     0     0     5   2.980 0.766E-20 0.153E-19 0.194E-08
        71.939531      165.739158     1270.086937     1     0     0     0     8   1.560 0.766E-02 0.153E-01 0.000E+00
        93.024411      139.894656      625.214478    18     0     0     0     3   4.080 0.766E-53 0.153E-52 0.272E-17
        84.249420       51.644100      299.627423     8     0     0     0     1   3.120 0.766E-23 0.153E-22 0.467E-10
        83.675030       86.362751      489.752464    17     0     0     0     5   4.010 0.766E-50 0.153E-49 0.465E-17
       166.500899       84.496367      769.340898    20     0     0     0     3   4.230 0.766E-59 0.153E-58 0.105E-17
       188.134533       74.787424      175.262033    17     9     0     0     3   4.007 0.000E+00 0.000E+00 0.557E-01
       153.043884      168.646667     1544.242155     1     0     0     0     1   1.560 0.766E-02 0.153E-01 0.000E+00
       105.636755       96.246122       77.162972    12    11     0     0     4   3.568 0.000E+00 0.000E+00 0.932E-01
       157.066830       30.971370      286.115563    11     0     0     0     2   3.470 0.766E-32 0.153E-31 0.419E-15
        16.698661      154.469899      359.965798    10     0     0     0     7   3.360 0.766E-29 0.153E-28 0.125E-14
         7.068869      105.832722       86.135320    13    10     0     0     3   3.664 0.000E+00 0.000E+00 0.730E-01
        74.651841       10.524273      640.671566    20     0     0     0     3   4.230 0.766E-59 0.153E-58 0.105E-17
       163.759382      194.260116      700.347634    26     0     0     0     8   4.620 0.766E-77 0.153E-76 0.113E-18
        11.897631       96.102907      270.102150    14     2     0     0     1   3.756 0.000E+00 0.000E+00 0.219E-02
        50.483664       55.314263      342.001508    11     1     0     0     2   3.466 0.000E+00 0.000E+00 0.137E-02
       106.579410      102.054590       59.121998     6     9     0     0     1   2.832 0.000E+00 0.000E+00 0.139E+00
        81.948468       71.784479      726.114061    13     0     0     0     2   3.660 0.766E-38 0.153E-37 0.676E-16
       189.274453      144.939571      795.019819    19     0     0     0     4   4.160 0.766E-56 0.153E-55 0.166E-17
        77.048260      155.468386      578.055124    14     0     0     0     8   3.760 0.766E-41 0.153E-40 0.314E-16
        62.787802      169.262456     1350.943404     1     0     0     0     7   1.560 0.766E-02 0.153E-01 0.000E+00
        39.807883      131.272971       69.574621     8    13     0     0     7   3.117 0.000E+00 0.000E+00 0.328E+00
       178.642297      131.002360      373.665615    11     0     0     0     7   3.470 0.766E-32 0.153E-31 0.419E-15
         9.968392      150.849465      389.379456    15     0     0     0     8   3.840 0.766E-44 0.153E-43 0.156E-16
        13.243187       61.431064     1717.015120     1     0     0     0     8   1.560 0.766E-02 0.153E-01 0.000E+00
       167.556984      125.181580     1113.608925     1     0     0     0     5   1.560 0.766E-02 0.153E-01 0.000E+00
        81.740453       40.801116      619.303770    11     0     0     0     7   3.470 0.766E-32 0.153E-31 0.419E-15
       118.313144      104.423288      852.467424    32     0     0     0     1   4.950 0.766E-95 0.153E-94 0.227E-19
       122.726659       38.649775      783.797179    24     0     0     0     8   4.500 0.766E-71 0.153E-70 0.218E-18
       117.318408      117.789184      106.004935    11    16     0     0     1   3.466 0.000E+00 0.000E+00 0.369E+00
       122.847730      134.822810       83.015571    11     9     0     0     3   3.466 0.000E+00 0.000E+00 0.686E-01
       194.970010      180.427665      386.196369    15     0     0     0     5   3.840 0.766E-44 0.153E-43 0.156E-16
        57.254567       11.844429     1286.957985     1     0     0     0     4   1.560 0.766E-02 0.153E-01 0.000E+00
        52.960779       31.302324      926.014278     1     0     0     0     5   1.560 0.766E-02 0.153E-01 0.000E+00
       116.469202       70.550058      668.714295    10     0     0     0     8   3.360 0.766E-29 0.153E-28 0.125E-14
       146.496027       50.757826       95.220335     8    12     0     0     3   3.117 0.000E+00 0.000E+00 0.227E+00
        57.884074      124.715457       70.313490    12    10     0     0     4   3.568 0.000E+00 0.000E+00 0.774E-01
        76.931506      118.525874      682.106061    20     0     0     0     6   4.230 0.766E-59 0.153E-58 0.105E-17
       128.069791      112.177255     2074.001334     1     0     0     0     2   1.560 0.766E-02 0.153E-01 0.000E+00
        72.935096      195.157005      282.490223     6     0     0     0     8   2.830 0.766E-17 0.153E-16 0.308E-10
        84.731938      169.614763     1227.367289     1     0     0     0     2   1.560 0.766E-02 0.153E-01 0.000E+00
       111.711104      144.736190       33.056811     6     5     0     0     7   2.832 0.000E+00 0.000E+00 0.398E-01
        37.395648       99.975636      587.599734    12     0     0     0     3   3.570 0.766E-35 0.153E-34 0.160E-15
         0.926812       36.945825     1439.603178     1     0     0     0     3   1.560 0.766E-02 0.153E-01 0.000E+00
        10.229538      109.794347      161.628399    12     7     0     0     6   3.568 0.000E+00 0.000E+00 0.465E-01
       180.131109       90.913352     1344.035094     1     0     0     0     6   1.560 0.766E-02 0.153E-01 0.000E+00
        14.356484        0.529404       92.326420     6     7     0     0     1   2.832 0.000E+00 0.000E+00 0.697E-01
       118.167413      169.709737      691.073765    24     0     0     0     2   4.500 0.766E-71 0.153E-70 0.218E-18
        64.556375       46.922439      388.368970    11     0     0     0     2   3.470 0.766E-32 0.153E-31 0.419E-15
       199.498014      176.036191      779.627938    12     0     0     0     6   3.570 0.766E-35 0.153E-34 0.160E-15
        57.483120       95.859722       70.969911    10    13     0     0     4   3.357 0.000E+00 0.000E+00 0.192E+00
       167.599592       13.913029      255.831142     7     1     0     0     4   2.981 0.000E+00 0.000E+00 0.138E-02
       149.523570       24.503941      234.071743    10     2     0     0     6   3.357 0.000E+00 0.000E+00 0.220E-02
       153.742935       91.666508     1863.449411     1     0     0     0     5   1.560 0.766E-02 0.153E-01 0.000E+00