ITEM: TIMESTEP
0
ITEM: NUMBER OF ATOMS
         523
ITEM: BOX BOUNDS pp pp pp
  0.0000000E+00   200.000000000000     
  0.0000000E+00   200.000000000000     
  0.0000000E+00   5000.00000000000     
ITEM: ATOMS x y z f1 f2 f3 f4 orient radius rate_mig rate_rot rate_emit
       195.175145       78.858377       17.046681     9     2     0     0     4   3.241 0.000E+00 0.000E+00 0.139E-01
       100.498573       41.635112      149.637204     9    10     0     0     7   3.241 0.000E+00 0.000E+00 0.564E+00
        18.077024       95.755857      327.978975    17     0     0     0     4   4.010 0.392E-49 0.784E-49 0.148E-15
        30.788142       87.853855     2036.322343     1     0     0     0     5   1.560 0.392E-01 0.784E-01 0.000E+00
       163.899657       47.470992      252.619155     8     2     0     0     8   3.117 0.000E+00 0.000E+00 0.140E-01
       156.542273      150.372366      189.882206     9     9     0     0     8   3.241 0.000E+00 0.000E+00 0.448E+00
        53.686581       88.143623      695.932070    19     0     0     0     2   4.160 0.392E-55 0.784E-55 0.555E-16
       197.666948       80.736528      489.120152    16     0     0     0     5   3.930 0.392E-46 0.784E-46 0.256E-15
        44.320441       51.839916      773.015850    24     0     0     0     3   4.500 0.392E-70 0.784E-70 0.808E-17
        57.483120       95.859722       70.969911    10     8     0     0     8   3.357 0.000E+00 0.000E+00 0.337E+00
       184.819855       52.506930     1679.786245     1     0     0     0     4   1.560 0.392E-01 0.784E-01 0.000E+00
       121.858180       90.852696       31.862258     9     5     0     0     6   3.241 0.000E+00 0.000E+00 0.286E-01
       196.991117      139.511153      189.150492    12     8     0     0     7   3.568 0.000E+00 0.000E+00 0.308E+00
       185.426611       31.295317      486.032669    18     0     0     0     2   4.080 0.392E-52 0.784E-52 0.888E-16
       116.105942        4.551717      458.572817     9     0     0     0     8   3.240 0.392E-25 0.784E-25 0.992E-13
        79.016203        3.171207      685.268528    21     0     0     0     1   4.300 0.392E-61 0.784E-61 0.237E-16
         6.634799       20.574716      319.401105    14     0     0     0     2   3.760 0.392E-40 0.784E-40 0.904E-15
        98.237489        4.501858      325.001990     8     0     0     0     6   3.120 0.392E-22 0.784E-22 0.662E-09
        41.670049      145.017131     1405.570705     1     0     0     0     4   1.560 0.392E-01 0.784E-01 0.000E+00
       158.619432       76.161732      107.038533    11    12     0     0     7   3.466 0.000E+00 0.000E+00 0.694E+00
        84.359027       61.676222     1278.373901     1     0     0     0     2   1.560 0.392E-01 0.784E-01 0.000E+00
       149.523570       24.503941      234.071743    10     3     0     0     5   3.357 0.000E+00 0.000E+00 0.185E-01
        33.652471      128.282407      806.545984    26     0     0     0     5   4.620 0.392E-76 0.784E-76 0.435E-17
       120.987692       93.228463      419.160634    12     0     0     0     6   3.570 0.392E-34 0.784E-34 0.424E-14
       135.710094       97.828391      111.256665    10    10     0     0     2   3.357 0.000E+00 0.000E+00 0.504E+00
        39.214112       34.420921      130.047918    18    12     0     0     3   4.084 0.000E+00 0.000E+00 0.446E+00
       105.412705      181.900153      465.141268    20     0     0     0     6   4.230 0.392E-58 0.784E-58 0.359E-16
        98.346471       94.913011     1146.087389     1     0     0     0     7   1.560 0.392E-01 0.784E-01 0.000E+00
        82.383489      100.909252     1546.765758     1     0     0     0     6   1.560 0.392E-01 0.784E-01 0.000E+00
        65.273638       47.718646       48.153904    12    10     0     0     7   3.568 0.000E+00 0.000E+00 0.432E+00
         2.862109      118.480941      758.360725    18     0     0     0     3   4.080 0.392E-52 0.784E-52 0.888E-16
       141.897536       63.343014      565.356000    13     0     0     0     8   3.660 0.392E-37 0.784E-37 0.187E-14
        32.192202      118.320390      682.922112    13     0     0     0     5   3.660 0.392E-37 0.784E-37 0.187E-14
       120.531350       69.535966      495.664905     9     0     0     0     2   3.240 0.392E-25 0.784E-25 0.992E-13
        29.151122        2.868140      960.446513    25     0     0     0     2   4.560 0.392E-73 0.784E-73 0.586E-17
       192.165730      135.997317      620.823106    22     0     0     0     7   4.370 0.392E-64 0.784E-64 0.162E-16
        47.354822       84.449048      158.471204     9     6     0     0     5   3.241 0.000E+00 0.000E+00 0.347E-01
         9.048248      132.863214     1383.542193     1     0     0     0     2   1.560 0.392E-01 0.784E-01 0.000E+00
       125.251883       48.286411      660.119129    27     0     0     0     1   4.680 0.392E-79 0.784E-79 0.326E-17
        24.010178       12.065779       94.375933    16    15     0     0     3   3.927 0.000E+00 0.000E+00 0.767E+00
       190.597834       40.197533     1833.270114     1     0     0     0     6   1.560 0.392E-01 0.784E-01 0.000E+00
       178.344722      160.895572     1107.628214     1     0     0     0     3   1.560 0.392E-01 0.784E-01 0.000E+00
       168.245356      125.321838       79.504564     9     9     0     0     4   3.241 0.000E+00 0.000E+00 0.448E+00
         3.383076        8.990276       94.711516    24    20     0     0     3   4.495 0.000E+00 0.000E+00 0.960E+00
        83.069466       91.154192      385.800169    10     0     0     0     3   3.360 0.392E-28 0.784E-28 0.298E-13
        84.776346       17.674247      857.278091    24     0     0     0     5   4.500 0.392E-70 0.784E-70 0.808E-17
       120.053956       52.522876      703.534843    22     0     0     0     8   4.370 0.392E-64 0.784E-64 0.162E-16
       158.292624       78.586338      415.084022    19     0     0     0     7   4.160 0.392E-55 0.784E-55 0.555E-16
       194.869118       39.485084      213.927308     9     4     0     0     5   3.241 0.000E+00 0.000E+00 0.234E-01
       150.734745       44.339680      539.575542    12     0     0     0     3   3.570 0.392E-34 0.784E-34 0.424E-14
       100.094614       21.294259     1524.688661     1     0     0     0     4   1.560 0.392E-01 0.784E-01 0.000E+00
        94.866926        2.365819       19.328712     4     4     0     0     2   2.474 0.000E+00 0.000E+00 0.200E+00
        53.647173      107.492386      400.707070    11     0     0     0     7   3.470 0.392E-31 0.784E-31 0.106E-13
       104.035233      106.409439     1008.940228     1     0     0     0     1   1.560 0.392E-01 0.784E-01 0.000E+00
         4.254788      135.226066      559.526675    19     0     0     0     4   4.160 0.392E-55 0.784E-55 0.555E-16
       195.731233       36.403965      129.665418     8     6     0     0     4   3.117 0.000E+00 0.000E+00 0.362E-01
        90.409988       14.959585      315.807017    10     0     0     0     4   3.360 0.392E-28 0.784E-28 0.298E-13
        78.005218      183.157072      213.472464     5     1     0     0     6   2.665 0.000E+00 0.000E+00 0.870E-02
       146.028746       27.470077      281.148170     7     0     0     0     3   2.980 0.392E-19 0.784E-19 0.228E-07
        88.474965       34.211840      298.612400     9     0     0     0     6   3.240 0.392E-25 0.784E-25 0.992E-13
       156.174390       62.940093     1151.881360     1     0     0     0     3   1.560 0.392E-01 0.784E-01 0.000E+00
        70.991534      159.249861     1195.738993     1     0     0     0     1   1.560 0.392E-01 0.784E-01 0.000E+00
       138.248213       95.792369      529.222476    14     0     0     0     3   3.760 0.392E-40 0.784E-40 0.904E-15
       123.896019       60.025816       67.631162     8     9     0     0     2   3.117 0.000E+00 0.000E+00 0.503E+00
        76.230508      149.699902      269.608101    25     1     0     0     1   4.557 0.000E+00 0.000E+00 0.865E-02
        85.048966       55.698511      337.603253    10     1     0     0     8   3.357 0.000E+00 0.000E+00 0.867E-02
       134.200390       19.188724     1141.949005     1     0     0     0     8   1.560 0.392E-01 0.784E-01 0.000E+00
        21.455098      170.980206      143.003419    13    13     0     0     5   3.664 0.000E+00 0.000E+00 0.693E+00
        26.359710       22.404303     1365.042574     1     0     0     0     2   1.560 0.392E-01 0.784E-01 0.000E+00
       137.376661      191.591577     1037.341946    41     0     0     0     2   5.370 0.392-121 0.784-121 0.176E-18
        57.884074      124.715457       70.313490    12    14     0     0     2   3.568 0.000E+00 0.000E+00 0.956E+00
       134.770674       31.589511      209.956311    14     5     0     0     1   3.756 0.000E+00 0.000E+00 0.187E+00
         9.034998       29.961261      372.519227    12     0     0     0     8   3.570 0.392E-34 0.784E-34 0.424E-14
       163.476876      184.331500     1899.710777     1     0     0     0     5   1.560 0.392E-01 0.784E-01 0.000E+00
       102.259066      137.264317      148.036978    12    10     0     0     8   3.568 0.000E+00 0.000E+00 0.432E+00
        49.351751      199.911892      323.751254     8     0     0     0     8   3.120 0.392E-22 0.784E-22 0.662E-09
       106.579410      102.054590       59.121998     6     6     0     0     3   2.832 0.000E+00 0.000E+00 0.292E+00
       142.663830      129.976017      590.271989    23     0     0     0     1   4.430 0.392E-67 0.784E-67 0.113E-16
       171.188349       90.236262     1429.709384     1     0     0     0     4   1.560 0.392E-01 0.784E-01 0.000E+00
       136.157686      115.145489      382.870616     6     0     0     0     6   2.830 0.392E-16 0.784E-16 0.443E-09
       154.114390      184.525554       75.340852    13     9     0     0     4   3.664 0.000E+00 0.000E+00 0.350E+00
       125.181978       17.736169     1648.284296     1     0     0     0     5   1.560 0.392E-01 0.784E-01 0.000E+00
        28.858671      101.953393     2058.782817     1     0     0     0     7   1.560 0.392E-01 0.784E-01 0.000E+00
        58.214852        1.993577      279.149481     6     3     0     0     5   2.832 0.000E+00 0.000E+00 0.193E-01
       164.514540        0.054582      184.467838    18    11     0     0     4   4.084 0.000E+00 0.000E+00 0.395E+00
       131.024633      110.421748      159.034370    10     8     0     0     8   3.357 0.000E+00 0.000E+00 0.337E+00
        57.252399      130.363535     2046.467437     1     0     0     0     8   1.560 0.392E-01 0.784E-01 0.000E+00
        61.523283       64.260821      107.500323    18    16     0     0     6   4.084 0.000E+00 0.000E+00 0.781E+00
       139.698075      159.703354      387.870412     8     0     0     0     6   3.120 0.392E-22 0.784E-22 0.662E-09
        79.525387      166.645840       31.563814     6     2     0     0     8   2.832 0.000E+00 0.000E+00 0.141E-01
       134.691756       73.108936      514.584422    20     0     0     0     1   4.230 0.392E-58 0.784E-58 0.359E-16
        69.915281       31.162092      407.321537    11     0     0     0     4   3.470 0.392E-31 0.784E-31 0.106E-13
        39.807883      131.272971       69.574621     8     8     0     0     2   3.117 0.000E+00 0.000E+00 0.391E+00
       156.290046       89.501436       64.003936    10     7     0     0     3   3.357 0.000E+00 0.000E+00 0.281E+00
       192.681945       49.246727       64.439787    14     7     0     0     5   3.756 0.000E+00 0.000E+00 0.253E+00
        47.815967       75.836501      316.915706     9     0     0     0     6   3.240 0.392E-25 0.784E-25 0.992E-13
       175.505253      198.001789      114.025482    12    12     0     0     6   3.568 0.000E+00 0.000E+00 0.624E+00
        50.462968      182.691284      871.456278    34     0     0     0     1   5.050 0.392-100 0.784-100 0.618E-18
       188.134533       74.787424      175.262033    17    10     0     0     7   4.007 0.000E+00 0.000E+00 0.357E+00
       147.162642       50.276194     1800.817581     1     0     0     0     4   1.560 0.392E-01 0.784E-01 0.000E+00
        32.189829       34.669919      305.024077     9     1     0     0     3   3.241 0.000E+00 0.000E+00 0.867E-02
       149.233474      171.371095      117.226682    22    12     0     0     4   4.367 0.000E+00 0.000E+00 0.404E+00
       142.025835       25.090515      831.189079    14     0     0     0     6   3.760 0.392E-40 0.784E-40 0.904E-15
        29.144327       51.612086      654.601244    14     0     0     0     4   3.760 0.392E-40 0.784E-40 0.904E-15
       101.630774      133.600193      274.102567    11     1     0     0     1   3.466 0.000E+00 0.000E+00 0.867E-02
       136.253165       80.415379     2053.315930     1     0     0     0     4   1.560 0.392E-01 0.784E-01 0.000E+00
         3.183738       87.720472      301.069663     8     2     0     0     4   3.117 0.000E+00 0.000E+00 0.140E-01
        24.080517      158.850329     1213.940984     1     0     0     0     1   1.560 0.392E-01 0.784E-01 0.000E+00
       147.011756      187.597028      659.470206    20     0     0     0     5   4.230 0.392E-58 0.784E-58 0.359E-16
       156.833165       82.166430      500.425169    12     0     0     0     3   3.570 0.392E-34 0.784E-34 0.424E-14
        86.620927      153.975224      121.417730    11    11     0     0     6   3.466 0.000E+00 0.000E+00 0.564E+00
        87.167441      168.430487       78.865369     8     7     0     0     6   3.117 0.000E+00 0.000E+00 0.312E+00
        93.553685      183.605263     1382.287200     1     0     0     0     4   1.560 0.392E-01 0.784E-01 0.000E+00
       158.733123      142.426843       92.670934     9     6     0     0     3   3.241 0.000E+00 0.000E+00 0.347E-01
        59.843688      135.981897       32.455549     6     6     0     0     2   2.832 0.000E+00 0.000E+00 0.292E+00
       180.928504       22.893776      498.095555    14     0     0     0     4   3.760 0.392E-40 0.784E-40 0.904E-15
        65.967448       49.346885      650.917390    21     0     0     0     6   4.300 0.392E-61 0.784E-61 0.237E-16
       119.343147       98.027318       54.225113     9     6     0     0     8   3.241 0.000E+00 0.000E+00 0.347E-01
       166.909814       49.176884     1453.238416     1     0     0     0     4   1.560 0.392E-01 0.784E-01 0.000E+00
       140.362619      152.958181     2110.484602     1     0     0     0     8   1.560 0.392E-01 0.784E-01 0.000E+00
        20.316145       14.964571      266.941194    10     3     0     0     8   3.357 0.000E+00 0.000E+00 0.185E-01
       122.525432       82.015777      280.043208    15     1     0     0     6   3.843 0.000E+00 0.000E+00 0.602E-01
        10.605582       84.411499      697.701822    15     0     0     0     3   3.840 0.392E-43 0.784E-43 0.466E-15
       184.077770      140.936398      585.808387    15     0     0     0     3   3.840 0.392E-43 0.784E-43 0.466E-15
       180.615471       48.912377     1700.896609     1     0     0     0     7   1.560 0.392E-01 0.784E-01 0.000E+00
       163.398537       97.397047       98.862200     8     8     0     0     8   3.117 0.000E+00 0.000E+00 0.391E+00
       163.979689      116.460209       47.705366    11    10     0     0     8   3.466 0.000E+00 0.000E+00 0.462E+00
       176.975352       45.201889     1100.551791     1     0     0     0     3   1.560 0.392E-01 0.784E-01 0.000E+00
        80.195313       28.451130      592.027274    19     0     0     0     8   4.160 0.392E-55 0.784E-55 0.555E-16
        80.422664      138.339351      756.990888    16     0     0     0     6   3.930 0.392E-46 0.784E-46 0.256E-15
        39.553546       58.691464      282.306919     9     1     0     0     4   3.241 0.000E+00 0.000E+00 0.867E-02
        14.356484        0.529404       92.326420     6     8     0     0     6   2.832 0.000E+00 0.000E+00 0.528E+00
        76.200416       95.303656      155.468000    12    12     0     0     6   3.568 0.000E+00 0.000E+00 0.624E+00
       114.761103      101.063241       80.083514     9     7     0     0     5   3.241 0.000E+00 0.000E+00 0.294E+00
       172.909563      124.022744      340.917032    13     0     0     0     1   3.660 0.392E-37 0.784E-37 0.187E-14
        15.647586      133.934744      233.294877    17     2     0     0     7   4.007 0.000E+00 0.000E+00 0.138E-01
        82.658531      117.489808      437.260206    13     0     0     0     7   3.660 0.392E-37 0.784E-37 0.187E-14
        29.517632      132.082724     1528.578013     1     0     0     0     6   1.560 0.392E-01 0.784E-01 0.000E+00
        34.466289       96.585792     2121.157033     1     0     0     0     1   1.560 0.392E-01 0.784E-01 0.000E+00
        78.948477      186.130533      270.538431     9     0     0     0     8   3.240 0.392E-25 0.784E-25 0.992E-13
         6.155871      140.099577     1284.960163     1     0     0     0     6   1.560 0.392E-01 0.784E-01 0.000E+00
        45.321596       45.111564     1773.635901     1     0     0     0     5   1.560 0.392E-01 0.784E-01 0.000E+00
        52.189601       96.775709      434.766350    15     0     0     0     1   3.840 0.392E-43 0.784E-43 0.466E-15
       104.619737       47.475537     1188.566291     1     0     0     0     6   1.560 0.392E-01 0.784E-01 0.000E+00
       106.199210      145.446176      375.731000    11     0     0     0     6   3.470 0.392E-31 0.784E-31 0.106E-13
        98.061691      142.047210       23.025201     6     4     0     0     5   2.832 0.000E+00 0.000E+00 0.250E-01
        33.949085      189.655045      289.120468     6     0     0     0     2   2.830 0.392E-16 0.784E-16 0.443E-09
        87.302005      152.429467       92.463803    11    13     0     0     5   3.466 0.000E+00 0.000E+00 0.876E+00
       107.280029       69.512174      796.301420    21     0     0     0     3   4.300 0.392E-61 0.784E-61 0.237E-16
       187.099156       25.839670      594.451228    18     0     0     0     5   4.080 0.392E-52 0.784E-52 0.888E-16
        88.623267      144.174665       88.564805    12    15     0     0     3   3.568 0.000E+00 0.000E+00 0.121E+01
       140.277058      119.318535      725.001754    24     0     0     0     7   4.500 0.392E-70 0.784E-70 0.808E-17
       183.058259      157.405006      921.293093    31     0     0     0     5   4.900 0.392E-91 0.784E-91 0.118E-17
       167.082795      130.484526      510.113699    10     0     0     0     1   3.360 0.392E-28 0.784E-28 0.298E-13
        21.787236      148.157159      189.561989     6     4     0     0     3   2.832 0.000E+00 0.000E+00 0.250E-01
       173.919202      110.405202      116.268054    12     7     0     0     4   3.568 0.000E+00 0.000E+00 0.263E+00
       116.490358       58.226885      100.210725    10    13     0     0     8   3.357 0.000E+00 0.000E+00 0.104E+01
        14.899609       55.039002     1818.114604     1     0     0     0     8   1.560 0.392E-01 0.784E-01 0.000E+00
       162.106260       26.007547      264.802995    12     0     0     0     7   3.570 0.392E-34 0.784E-34 0.424E-14
       137.206159      159.188233      820.382391    22     0     0     0     8   4.370 0.392E-64 0.784E-64 0.162E-16
        14.297527      191.558534      818.868754    16     0     0     0     4   3.930 0.392E-46 0.784E-46 0.256E-15
       186.506977       27.125986      560.284272    23     0     0     0     4   4.430 0.392E-67 0.784E-67 0.113E-16
        17.214158      161.105156      239.248219    10     3     0     0     7   3.357 0.000E+00 0.000E+00 0.185E-01
       155.472320      182.582328      629.701769    20     0     0     0     7   4.230 0.392E-58 0.784E-58 0.359E-16
       146.496027       50.757826       95.220335     8     6     0     0     2   3.117 0.000E+00 0.000E+00 0.362E-01
        74.043489       38.564483     1751.374829     1     0     0     0     7   1.560 0.392E-01 0.784E-01 0.000E+00
       145.937555        1.583386      388.653396     6     0     0     0     6   2.830 0.392E-16 0.784E-16 0.443E-09
        74.125379      186.008205      224.895500    15     1     0     0     1   3.843 0.000E+00 0.000E+00 0.602E-01
        37.499069       33.330134     1200.399506     1     0     0     0     7   1.560 0.392E-01 0.784E-01 0.000E+00
       104.256922      191.293224      419.995838    18     0     0     0     2   4.080 0.392E-52 0.784E-52 0.888E-16
       105.636755       96.246122       77.162972    12     7     0     0     3   3.568 0.000E+00 0.000E+00 0.263E+00
        64.893641      147.514795     1156.946654     1     0     0     0     6   1.560 0.392E-01 0.784E-01 0.000E+00
        72.660095      132.359960      253.137131     7     2     0     0     1   2.981 0.000E+00 0.000E+00 0.140E-01
       129.559549      120.280090     1623.867272     1     0     0     0     1   1.560 0.392E-01 0.784E-01 0.000E+00
        43.644571      116.036595      124.681332    13    13     0     0     3   3.664 0.000E+00 0.000E+00 0.693E+00
        63.514784        9.564383      426.956287     9     0     0     0     3   3.240 0.392E-25 0.784E-25 0.992E-13
       122.167492       39.868017      135.847786    16    18     0     0     2   3.927 0.000E+00 0.000E+00 0.133E+01
        59.942700       23.938973      303.833771    18     0     0     0     2   4.080 0.392E-52 0.784E-52 0.888E-16
       170.898369      163.056464      297.043522    11     1     0     0     2   3.466 0.000E+00 0.000E+00 0.867E-02
       191.645150      195.307816      230.540179    16     6     0     0     2   3.927 0.000E+00 0.000E+00 0.214E+00
       162.664140      169.531465      887.246612     1     0     0     0     5   1.560 0.392E-01 0.784E-01 0.000E+00
        93.070350       90.751212      911.882230    45     0     0     0     5   5.540 0.392-133 0.784-133 0.977E-19
       121.818578       42.282754      474.555443    11     0     0     0     8   3.470 0.392E-31 0.784E-31 0.106E-13
       185.653702       33.368032      162.772698     6     8     0     0     4   2.832 0.000E+00 0.000E+00 0.528E+00
        58.105996       98.380489      274.114953    20     3     0     0     8   4.230 0.000E+00 0.000E+00 0.182E-01
       198.175322      128.462898       39.728176     8     6     0     0     2   3.117 0.000E+00 0.000E+00 0.362E-01
       131.003527      135.578536      417.679856    15     0     0     0     4   3.840 0.392E-43 0.784E-43 0.466E-15
       113.483827        2.100829     1475.383019     1     0     0     0     7   1.560 0.392E-01 0.784E-01 0.000E+00
        33.819008      185.434281      627.026582    16     0     0     0     8   3.930 0.392E-46 0.784E-46 0.256E-15
       198.706249       28.854689      618.456514    26     0     0     0     2   4.620 0.392E-76 0.784E-76 0.435E-17
        28.682362      100.261744       39.360714    18     8     0     0     4   4.084 0.000E+00 0.000E+00 0.273E+00
        58.487605      198.702774      218.865639    11     6     0     0     1   3.466 0.000E+00 0.000E+00 0.328E-01
       174.540021      182.971298      217.515010    10     3     0     0     3   3.357 0.000E+00 0.000E+00 0.185E-01
        37.796010      164.756819      163.573743    11     9     0     0     4   3.466 0.000E+00 0.000E+00 0.384E+00
        27.083587       16.609617      372.239203     9     0     0     0     2   3.240 0.392E-25 0.784E-25 0.992E-13
       171.462177      182.656621      987.605896     1     0     0     0     1   1.560 0.392E-01 0.784E-01 0.000E+00
       177.495932       88.291330     1842.422383     1     0     0     0     1   1.560 0.392E-01 0.784E-01 0.000E+00
       174.794023      145.135793      574.364041     7     0     0     0     5   2.980 0.392E-19 0.784E-19 0.228E-07
        71.939531      165.739158     1270.086937     1     0     0     0     8   1.560 0.392E-01 0.784E-01 0.000E+00
        93.024411      139.894656      625.214478    18     0     0     0     3   4.080 0.392E-52 0.784E-52 0.888E-16
        84.249420       51.644100      299.627423     8     0     0     0     1   3.120 0.392E-22 0.784E-22 0.662E-09
        83.675030       86.362751      489.752464    17     0     0     0     5   4.010 0.392E-49 0.784E-49 0.148E-15
       166.500899       84.496367      769.340898    20     0     0     0     3   4.230 0.392E-58 0.784E-58 0.359E-16
         5.545140       14.653202       22.317900    10     5     0     0     8   3.357 0.000E+00 0.000E+00 0.195E+00
       153.043884      171.811817     1547.407305     1     0     0     0     6   1.560 0.392E-01 0.784E-01 0.000E+00
       111.711104      144.736190       33.056811     6     4     0     0     4   2.832 0.000E+00 0.000E+00 0.250E-01
       157.066830       30.971370      286.115563    11     0     0     0     2   3.470 0.392E-31 0.784E-31 0.106E-13
        16.698661      154.469899      359.965798    10     0     0     0     7   3.360 0.392E-28 0.784E-28 0.298E-13
        85.775693       80.531238      160.166091     9     8     0     0     3   3.241 0.000E+00 0.000E+00 0.359E+00
        74.651841       10.524273      640.671566    20     0     0     0     3   4.230 0.392E-58 0.784E-58 0.359E-16
       163.759382      194.260116      700.347634    26     0     0     0     8   4.620 0.392E-76 0.784E-76 0.435E-17
       122.847730      134.822810       83.015571    11    14     0     0     5   3.466 0.000E+00 0.000E+00 0.112E+01
        50.483664       55.314263      342.001508    11     1     0     0     2   3.466 0.000E+00 0.000E+00 0.867E-02
       167.800373      167.717694       27.241053    11     7     0     0     3   3.466 0.000E+00 0.000E+00 0.271E+00
        81.948468       71.784479      726.114061    13     0     0     0     2   3.660 0.392E-37 0.784E-37 0.187E-14
       189.274453      144.939571      795.019819    19     0     0     0     4   4.160 0.392E-55 0.784E-55 0.555E-16
        77.048260      155.468386      578.055124    14     0     0     0     8   3.760 0.392E-40 0.784E-40 0.904E-15
        59.622652      169.262456     1350.943404     1     0     0     0     6   1.560 0.392E-01 0.784E-01 0.000E+00
       140.998689       86.963348      101.502835     7     5     0     0     5   2.981 0.000E+00 0.000E+00 0.212E+00
       178.642297      131.002360      373.665615    11     0     0     0     7   3.470 0.392E-31 0.784E-31 0.106E-13
         9.968392      150.849465      389.379456    15     0     0     0     8   3.840 0.392E-43 0.784E-43 0.466E-15
        14.825762       66.178788     1712.267396     1     0     0     0     4   1.560 0.392E-01 0.784E-01 0.000E+00
       169.139559      123.599005     1112.026350     1     0     0     0     5   1.560 0.392E-01 0.784E-01 0.000E+00
        81.740453       40.801116      619.303770    11     0     0     0     7   3.470 0.392E-31 0.784E-31 0.106E-13
       118.313144      104.423288      852.467424    32     0     0     0     1   4.950 0.392E-94 0.784E-94 0.944E-18
       122.726659       38.649775      783.797179    24     0     0     0     8   4.500 0.392E-70 0.784E-70 0.808E-17
        19.254229       79.038506      189.797689    18     7     0     0     5   4.084 0.000E+00 0.000E+00 0.241E+00
        66.581329      110.348930      239.755886     8     3     0     0     4   3.117 0.000E+00 0.000E+00 0.188E-01
       194.970010      180.427665      386.196369    15     0     0     0     5   3.840 0.392E-43 0.784E-43 0.466E-15
        57.254567       11.844429     1286.957985     1     0     0     0     4   1.560 0.392E-01 0.784E-01 0.000E+00
        54.543354       32.884899      924.431703     1     0     0     0     8   1.560 0.392E-01 0.784E-01 0.000E+00
       116.469202       70.550058      668.714295    10     0     0     0     8   3.360 0.392E-28 0.784E-28 0.298E-13
        63.585400      127.145171      101.709727    11    12     0     0     2   3.466 0.000E+00 0.000E+00 0.694E+00
       195.199426      195.538805      152.875568    12     9     0     0     1   3.568 0.000E+00 0.000E+00 0.365E+00
        76.931506      118.525874      682.106061    20     0     0     0     6   4.230 0.392E-58 0.784E-58 0.359E-16
       128.069791      112.177255     2074.001334     1     0     0     0     2   1.560 0.392E-01 0.784E-01 0.000E+00
        72.935096      195.157005      282.490223     6     0     0     0     8   2.830 0.392E-16 0.784E-16 0.443E-09
        84.731938      169.614763     1227.367289     1     0     0     0     6   1.560 0.392E-01 0.784E-01 0.000E+00
        67.039214       19.488600      235.468423    16     3     0     0     7   3.927 0.000E+00 0.000E+00 0.127E+00
        37.395648       99.975636      587.599734    12     0     0     0     3   3.570 0.392E-34 0.784E-34 0.424E-14
         0.926812       33.780676     1439.603178     1     0     0     0     6   1.560 0.392E-01 0.784E-01 0.000E+00
       197.204266       37.593889      237.783320     8     2     0     0     3   3.117 0.000E+00 0.000E+00 0.140E-01
       178.548534       92.495927     1345.617669     1     0     0     0     6   1.560 0.392E-01 0.784E-01 0.000E+00
        11.897631       96.102907      270.102150    14     3     0     0     5   3.756 0.000E+00 0.000E+00 0.183E-01
       118.167413      169.709737      691.073765    24     0     0     0     2   4.500 0.392E-70 0.784E-70 0.808E-17
        64.556375       46.922439      388.368970    11     0     0     0     2   3.470 0.392E-31 0.784E-31 0.106E-13
       199.498014      176.036191      779.627938    12     0     0     0     6   3.570 0.392E-34 0.784E-34 0.424E-14
       156.294016        8.339443      228.344728     6     4     0     0     7   2.832 0.000E+00 0.000E+00 0.250E-01
       167.599592       13.913029      255.831142     7     1     0     0     4   2.981 0.000E+00 0.000E+00 0.868E-02
       132.145149       38.579207       49.018579    16     9     0     0     2   3.927 0.000E+00 0.000E+00 0.321E+00
       150.577785       91.666508     1863.449411     1     0     0     0     6   1.560 0.392E-01 0.784E-01 0.000E+00