ITEM: TIMESTEP
0
ITEM: NUMBER OF ATOMS
         523
ITEM: BOX BOUNDS pp pp pp
  0.0000000E+00   200.000000000000     
  0.0000000E+00   200.000000000000     
  0.0000000E+00   5000.00000000000     
ITEM: ATOMS x y z f1 f2 f3 f4 orient radius rate_mig rate_rot rate_emit
       116.490358       58.226885      100.210725    10     9     0     0     8   3.357 0.000E+00 0.000E+00 0.701E+00
        23.171388      155.084804       97.864350    17    22     0     0     4   4.007 0.000E+00 0.000E+00 0.452E+01
        18.077024       95.755857      327.978975    17     0     0     0     4   4.010 0.653E-49 0.131E-48 0.434E-15
        30.788142       87.853855     2036.322343     1     0     0     0     1   1.560 0.653E-01 0.131E+00 0.000E+00
       124.121270       61.993981      212.204042    14     2     0     0     1   3.756 0.000E+00 0.000E+00 0.246E-01
        13.844866       53.071363       10.988686     8     2     0     0     5   3.117 0.000E+00 0.000E+00 0.248E-01
        53.686581       88.143623      695.932070    19     0     0     0     2   4.160 0.653E-55 0.131E-54 0.166E-15
       197.666948       80.736528      489.120152    16     0     0     0     5   3.930 0.653E-46 0.131E-45 0.747E-15
        44.320441       51.839916      773.015850    24     0     0     0     3   4.500 0.653E-70 0.131E-69 0.249E-16
        64.169159       44.376127       27.088228    12     5     0     0     1   3.568 0.000E+00 0.000E+00 0.327E+00
       191.150154       52.506930     1679.786245     1     0     0     0     8   1.560 0.653E-01 0.131E+00 0.000E+00
        66.694939       91.046582      185.777667    10     8     0     0     6   3.357 0.000E+00 0.000E+00 0.577E+00
       156.290046       89.501436       64.003936    10     4     0     0     3   3.357 0.000E+00 0.000E+00 0.410E-01
       185.426611       31.295317      486.032669    18     0     0     0     2   4.080 0.653E-52 0.131E-51 0.263E-15
       116.105942        4.551717      458.572817     9     0     0     0     8   3.240 0.653E-25 0.131E-24 0.262E-12
        79.016203        3.171207      685.268528    21     0     0     0     1   4.300 0.653E-61 0.131E-60 0.719E-16
        94.656289      139.871803      191.245201    24    13     0     0     5   4.495 0.000E+00 0.000E+00 0.744E+00
        98.237489        4.501858      325.001990     8     0     0     0     6   3.120 0.653E-22 0.131E-21 0.151E-08
        43.252624      143.434556     1407.153280     1     0     0     0     3   1.560 0.653E-01 0.131E+00 0.000E+00
        20.533618       83.983208       73.034931    10     5     0     0     5   3.357 0.000E+00 0.000E+00 0.336E+00
        85.941601       63.258797     1276.791326     1     0     0     0     1   1.560 0.653E-01 0.131E+00 0.000E+00
       194.869118       39.485084      213.927308     9     4     0     0     1   3.241 0.000E+00 0.000E+00 0.415E-01
        33.652471      128.282407      806.545984    26     0     0     0     5   4.620 0.653E-76 0.131E-75 0.136E-16
       120.987692       93.228463      419.160634    12     0     0     0     6   3.570 0.653E-34 0.131E-33 0.118E-13
        39.553546       58.691464      282.306919     9     2     0     0     6   3.241 0.000E+00 0.000E+00 0.247E-01
       117.318408      117.789184      106.004935    11     9     0     0     4   3.466 0.000E+00 0.000E+00 0.657E+00
       105.412705      181.900153      465.141268    20     0     0     0     6   4.230 0.653E-58 0.131E-57 0.108E-15
        98.346471       94.913011     1146.087389     1     0     0     0     7   1.560 0.653E-01 0.131E+00 0.000E+00
        83.966064       99.326677     1545.183183     1     0     0     0     5   1.560 0.653E-01 0.131E+00 0.000E+00
       196.991117      139.511153      189.150492    12     7     0     0     3   3.568 0.000E+00 0.000E+00 0.452E+00
         2.862109      118.480941      758.360725    18     0     0     0     3   4.080 0.653E-52 0.131E-51 0.263E-15
       141.897536       63.343014      565.356000    13     0     0     0     8   3.660 0.653E-37 0.131E-36 0.527E-14
        32.192202      118.320390      682.922112    13     0     0     0     5   3.660 0.653E-37 0.131E-36 0.527E-14
       120.531350       69.535966      495.664905     9     0     0     0     2   3.240 0.653E-25 0.131E-24 0.262E-12
        29.151122        2.868140      960.446513    25     0     0     0     2   4.560 0.653E-73 0.131E-72 0.182E-16
       192.165730      135.997317      620.823106    22     0     0     0     7   4.370 0.653E-64 0.131E-63 0.495E-16
        19.254229       79.038506      189.797689    18     6     0     0     8   4.084 0.000E+00 0.000E+00 0.539E-01
         5.883098      132.863214     1386.707342     1     0     0     0     7   1.560 0.653E-01 0.131E+00 0.000E+00
       125.251883       48.286411      660.119129    27     0     0     0     1   4.680 0.653E-79 0.131E-78 0.102E-16
       113.170984      198.539347       75.422456    19    15     0     0     6   4.158 0.000E+00 0.000E+00 0.109E+01
       190.597834       40.197533     1833.270114     1     0     0     0     7   1.560 0.653E-01 0.131E+00 0.000E+00
       178.344722      160.895572     1107.628214     1     0     0     0     3   1.560 0.653E-01 0.131E+00 0.000E+00
       102.259066      137.264317      148.036978    12     9     0     0     3   3.568 0.000E+00 0.000E+00 0.625E+00
        61.523283       64.260821      107.500323    18    10     0     0     3   4.084 0.000E+00 0.000E+00 0.599E+00
        83.069466       91.154192      385.800169    10     0     0     0     3   3.360 0.653E-28 0.131E-27 0.801E-13
        84.776346       17.674247      857.278091    24     0     0     0     5   4.500 0.653E-70 0.131E-69 0.249E-16
       120.053956       52.522876      703.534843    22     0     0     0     8   4.370 0.653E-64 0.131E-63 0.495E-16
       158.292624       78.586338      415.084022    19     0     0     0     7   4.160 0.653E-55 0.131E-54 0.166E-15
       182.973458       80.026475      160.941458    13     6     0     0     1   3.664 0.000E+00 0.000E+00 0.564E-01
       150.734745       44.339680      539.575542    12     0     0     0     3   3.570 0.653E-34 0.131E-33 0.118E-13
       100.094614       21.294259     1524.688661     1     0     0     0     4   1.560 0.653E-01 0.131E+00 0.000E+00
        53.163309      111.314124       89.989475     9     7     0     0     2   3.241 0.000E+00 0.000E+00 0.503E+00
        53.647173      107.492386      400.707070    11     0     0     0     7   3.470 0.653E-31 0.131E-30 0.290E-13
       105.617808      111.157164     1010.522803     1     0     0     0     6   1.560 0.653E-01 0.131E+00 0.000E+00
         4.254788      135.226066      559.526675    19     0     0     0     4   4.160 0.653E-55 0.131E-54 0.166E-15
        83.578519      100.506524      290.298083    11     3     0     0     5   3.466 0.000E+00 0.000E+00 0.328E-01
        90.409988       14.959585      315.807017    10     0     0     0     4   3.360 0.653E-28 0.131E-27 0.801E-13
       156.144721       56.550525      237.821346    10     4     0     0     7   3.357 0.000E+00 0.000E+00 0.410E-01
       146.028746       27.470077      281.148170     7     0     0     0     3   2.980 0.653E-19 0.131E-18 0.492E-07
        88.474965       34.211840      298.612400     9     0     0     0     6   3.240 0.653E-25 0.131E-24 0.262E-12
       154.591815       64.522668     1153.463934     1     0     0     0     6   1.560 0.653E-01 0.131E+00 0.000E+00
        72.574109      154.502136     1194.156418     1     0     0     0     5   1.560 0.653E-01 0.131E+00 0.000E+00
       138.248213       95.792369      529.222476    14     0     0     0     3   3.760 0.653E-40 0.131E-39 0.258E-14
        58.105996       98.380489      274.114953    20     3     0     0     3   4.230 0.000E+00 0.000E+00 0.323E-01
        76.230508      149.699902      269.608101    25     1     0     0     1   4.557 0.000E+00 0.000E+00 0.154E-01
       104.231474      128.312817       47.057942    11     8     0     0     8   3.466 0.000E+00 0.000E+00 0.549E+00
       131.035241       25.519024     1148.279304     1     0     0     0     1   1.560 0.653E-01 0.131E+00 0.000E+00
       149.523570       24.503941      234.071743    10     4     0     0     4   3.357 0.000E+00 0.000E+00 0.410E-01
        26.359710       22.404303     1368.207723     1     0     0     0     7   1.560 0.653E-01 0.131E+00 0.000E+00
       137.376661      191.591577     1037.341946    41     0     0     0     2   5.370 0.653-121 0.131-120 0.580E-18
        71.443769       11.340619      150.218700     7     8     0     0     5   2.981 0.000E+00 0.000E+00 0.753E+00
       158.733123      142.426843       92.670934     9     9     0     0     5   3.241 0.000E+00 0.000E+00 0.764E+00
         9.034998       29.961261      372.519227    12     0     0     0     8   3.570 0.653E-34 0.131E-33 0.118E-13
       165.059451      182.748925     1898.128202     1     0     0     0     5   1.560 0.653E-01 0.131E+00 0.000E+00
       103.320290       45.503738      122.270463     8     9     0     0     4   3.117 0.000E+00 0.000E+00 0.857E+00
        49.351751      199.911892      323.751254     8     0     0     0     8   3.120 0.653E-22 0.131E-21 0.151E-08
        28.682362      100.261744       39.360714    18     6     0     0     4   4.084 0.000E+00 0.000E+00 0.539E-01
       142.663830      129.976017      590.271989    23     0     0     0     1   4.430 0.653E-67 0.131E-66 0.347E-16
       171.188349       90.236262     1429.709384     1     0     0     0     4   1.560 0.653E-01 0.131E+00 0.000E+00
       136.157686      115.145489      382.870616     6     0     0     0     6   2.830 0.653E-16 0.131E-15 0.102E-08
        79.937502       73.020575      210.341197    21     7     0     0     5   4.299 0.000E+00 0.000E+00 0.603E-01
       122.016828       20.901319     1641.953997     1     0     0     0     4   1.560 0.653E-01 0.131E+00 0.000E+00
        25.693522      105.118543     2058.782817     1     0     0     0     3   1.560 0.653E-01 0.131E+00 0.000E+00
        58.214852        1.993577      279.149481     6     3     0     0     5   2.832 0.000E+00 0.000E+00 0.342E-01
       140.199234        4.084596      237.410045    11     1     0     0     2   3.466 0.000E+00 0.000E+00 0.154E-01
        69.193054       11.089508      204.626131    19     5     0     0     4   4.158 0.000E+00 0.000E+00 0.465E-01
        57.252399      127.198385     2046.467437     1     0     0     0     2   1.560 0.653E-01 0.131E+00 0.000E+00
       195.175145       78.858377       17.046681     9     2     0     0     5   3.241 0.000E+00 0.000E+00 0.247E-01
       139.698075      159.703354      387.870412     8     0     0     0     6   3.120 0.653E-22 0.131E-21 0.151E-08
        79.525387      166.645840       31.563814     6     2     0     0     8   2.832 0.000E+00 0.000E+00 0.250E-01
       134.691756       73.108936      514.584422    20     0     0     0     1   4.230 0.653E-58 0.131E-57 0.108E-15
        69.915281       31.162092      407.321537    11     0     0     0     4   3.470 0.653E-31 0.131E-30 0.290E-13
       167.599592       13.913029      255.831142     7     1     0     0     1   2.981 0.000E+00 0.000E+00 0.154E-01
       197.473397      165.572987      220.150275    13     7     0     0     1   3.664 0.000E+00 0.000E+00 0.656E-01
       129.655182       26.490380      103.759805    10     9     0     0     8   3.357 0.000E+00 0.000E+00 0.701E+00
        47.815967       75.836501      316.915706     9     0     0     0     6   3.240 0.653E-25 0.131E-24 0.262E-12
       157.880213       13.190712       30.079589     8     7     0     0     1   3.117 0.000E+00 0.000E+00 0.534E+00
        50.462968      182.691284      871.456278    34     0     0     0     1   5.050 0.653-100 0.131E-99 0.199E-17
        88.623267      144.174665       88.564805    12     9     0     0     6   3.568 0.000E+00 0.000E+00 0.625E+00
       143.997492       50.276194     1800.817581     1     0     0     0     7   1.560 0.653E-01 0.131E+00 0.000E+00
        65.273638       47.718646       48.153904    12     8     0     0     6   3.568 0.000E+00 0.000E+00 0.528E+00
        58.487605      198.702774      218.865639    11     6     0     0     6   3.466 0.000E+00 0.000E+00 0.582E-01
       142.025835       25.090515      831.189079    14     0     0     0     6   3.760 0.653E-40 0.131E-39 0.258E-14
        29.144327       51.612086      654.601244    14     0     0     0     4   3.760 0.653E-40 0.131E-39 0.258E-14
       101.630774      133.600193      274.102567    11     1     0     0     1   3.466 0.000E+00 0.000E+00 0.154E-01
       134.670590       81.997954     2051.733355     1     0     0     0     4   1.560 0.653E-01 0.131E+00 0.000E+00
       144.497725       61.239522      321.732739    16     2     0     0     6   3.927 0.000E+00 0.000E+00 0.246E-01
        24.080517      158.850329     1213.940984     1     0     0     0     1   1.560 0.653E-01 0.131E+00 0.000E+00
       147.011756      187.597028      659.470206    20     0     0     0     5   4.230 0.653E-58 0.131E-57 0.108E-15
       156.833165       82.166430      500.425169    12     0     0     0     3   3.570 0.653E-34 0.131E-33 0.118E-13
       146.706692      119.683645       51.726415     7     6     0     0     1   2.981 0.000E+00 0.000E+00 0.459E+00
       185.519586       83.619158       99.297485    12    10     0     0     3   3.568 0.000E+00 0.000E+00 0.739E+00
        93.553685      180.440113     1382.287200     1     0     0     0     1   1.560 0.653E-01 0.131E+00 0.000E+00
       191.645150      195.307816      230.540179    16     3     0     0     6   3.927 0.000E+00 0.000E+00 0.219E+00
         2.470076        0.330357      180.536418     8     9     0     0     8   3.117 0.000E+00 0.000E+00 0.857E+00
       180.928504       22.893776      498.095555    14     0     0     0     4   3.760 0.653E-40 0.131E-39 0.258E-14
        65.967448       49.346885      650.917390    21     0     0     0     6   4.300 0.653E-61 0.131E-60 0.719E-16
       118.756428       77.532862      163.896739    17    10     0     0     1   4.007 0.000E+00 0.000E+00 0.612E+00
       165.327239       50.759459     1454.820990     1     0     0     0     6   1.560 0.653E-01 0.131E+00 0.000E+00
       138.780044      151.375606     2108.902027     1     0     0     0     4   1.560 0.653E-01 0.131E+00 0.000E+00
        20.316145       14.964571      266.941194    10     3     0     0     8   3.357 0.000E+00 0.000E+00 0.329E-01
       122.525432       82.015777      280.043208    15     1     0     0     6   3.843 0.000E+00 0.000E+00 0.104E+00
        10.605582       84.411499      697.701822    15     0     0     0     3   3.840 0.653E-43 0.131E-42 0.134E-14
       184.077770      140.936398      585.808387    15     0     0     0     3   3.840 0.653E-43 0.131E-42 0.134E-14
       182.198046       47.329802     1699.314034     1     0     0     0     5   1.560 0.653E-01 0.131E+00 0.000E+00
        74.953408       16.705855      123.657347     8    10     0     0     5   3.117 0.000E+00 0.000E+00 0.112E+01
        12.959783      160.492750       94.339551     8     6     0     0     3   3.117 0.000E+00 0.000E+00 0.641E-01
       176.975352       45.201889     1100.551791     1     0     0     0     3   1.560 0.653E-01 0.131E+00 0.000E+00
        80.195313       28.451130      592.027274    19     0     0     0     8   4.160 0.653E-55 0.131E-54 0.166E-15
        80.422664      138.339351      756.990888    16     0     0     0     6   3.930 0.653E-46 0.131E-45 0.747E-15
       132.145149       38.579207       49.018579    16    10     0     0     4   3.927 0.000E+00 0.000E+00 0.628E+00
       163.979689      116.460209       47.705366    11     8     0     0     4   3.466 0.000E+00 0.000E+00 0.549E+00
         3.183738       87.720472      301.069663     8     2     0     0     1   3.117 0.000E+00 0.000E+00 0.248E-01
       144.341793      127.742978      244.927566     9     6     0     0     3   3.241 0.000E+00 0.000E+00 0.615E-01
       172.909563      124.022744      340.917032    13     0     0     0     1   3.660 0.653E-37 0.131E-36 0.527E-14
        38.052992      144.469370      277.458803    16     0     0     0     5   3.930 0.653E-46 0.131E-45 0.747E-15
        82.658531      117.489808      437.260206    13     0     0     0     7   3.660 0.653E-37 0.131E-36 0.527E-14
        27.935057      133.665299     1530.160588     1     0     0     0     6   1.560 0.653E-01 0.131E+00 0.000E+00
        34.466289       96.585792     2121.157033     1     0     0     0     1   1.560 0.653E-01 0.131E+00 0.000E+00
        78.948477      186.130533      270.538431     9     0     0     0     8   3.240 0.653E-25 0.131E-24 0.262E-12
         4.573297      141.682151     1286.542738     1     0     0     0     5   1.560 0.653E-01 0.131E+00 0.000E+00
        46.904171       43.528989     1775.218476     1     0     0     0     3   1.560 0.653E-01 0.131E+00 0.000E+00
        52.189601       96.775709      434.766350    15     0     0     0     1   3.840 0.653E-43 0.131E-42 0.134E-14
       107.784887       47.475537     1182.235992     1     0     0     0     8   1.560 0.653E-01 0.131E+00 0.000E+00
       106.199210      145.446176      375.731000    11     0     0     0     6   3.470 0.653E-31 0.131E-30 0.290E-13
        98.061691      142.047210       23.025201     6     4     0     0     5   2.832 0.000E+00 0.000E+00 0.444E-01
        33.949085      189.655045      289.120468     6     0     0     0     2   2.830 0.653E-16 0.131E-15 0.102E-08
        67.039214       19.488600      235.468423    16     1     0     0     3   3.927 0.000E+00 0.000E+00 0.154E-01
       107.280029       69.512174      796.301420    21     0     0     0     3   4.300 0.653E-61 0.131E-60 0.719E-16
       187.099156       25.839670      594.451228    18     0     0     0     5   4.080 0.653E-52 0.131E-51 0.263E-15
        43.644571      116.036595      124.681332    13    14     0     0     2   3.664 0.000E+00 0.000E+00 0.143E+01
       140.277058      119.318535      725.001754    24     0     0     0     7   4.500 0.653E-70 0.131E-69 0.249E-16
       183.058259      157.405006      921.293093    31     0     0     0     5   4.900 0.653E-91 0.131E-90 0.377E-17
       167.082795      130.484526      510.113699    10     0     0     0     1   3.360 0.653E-28 0.131E-27 0.801E-13
        78.005218      183.157072      213.472464     5     2     0     0     6   2.665 0.000E+00 0.000E+00 0.253E-01
       196.855819      130.746666      151.344618    13    10     0     0     2   3.664 0.000E+00 0.000E+00 0.700E+00
       149.233474      171.371095      117.226682    22    14     0     0     7   4.367 0.000E+00 0.000E+00 0.864E+00
        14.899609       55.039002     1818.114604     1     0     0     0     8   1.560 0.653E-01 0.131E+00 0.000E+00
       168.245356      125.321838       79.504564     9    11     0     0     3   3.241 0.000E+00 0.000E+00 0.123E+01
       137.206159      159.188233      820.382391    22     0     0     0     8   4.370 0.653E-64 0.131E-63 0.495E-16
        14.297527      191.558534      818.868754    16     0     0     0     4   3.930 0.653E-46 0.131E-45 0.747E-15
       186.506977       27.125986      560.284272    23     0     0     0     4   4.430 0.653E-67 0.131E-66 0.347E-16
        17.214158      161.105156      239.248219    10     3     0     0     7   3.357 0.000E+00 0.000E+00 0.329E-01
       155.472320      182.582328      629.701769    20     0     0     0     7   4.230 0.653E-58 0.131E-57 0.108E-15
       148.202653      198.443104       84.509234    12    16     0     0     2   3.568 0.000E+00 0.000E+00 0.262E+01
        74.043489       38.564483     1751.374829     1     0     0     0     6   1.560 0.653E-01 0.131E+00 0.000E+00
       142.314409      191.032037       42.048257    14     6     0     0     5   3.756 0.000E+00 0.000E+00 0.375E+00
        74.125379      186.008205      224.895500    15     1     0     0     1   3.843 0.000E+00 0.000E+00 0.104E+00
        35.916494       31.747559     1198.816931     1     0     0     0     2   1.560 0.653E-01 0.131E+00 0.000E+00
       104.256922      191.293224      419.995838    18     0     0     0     2   4.080 0.653E-52 0.131E-51 0.263E-15
       195.731233       36.403965      129.665418     8     8     0     0     8   3.117 0.000E+00 0.000E+00 0.668E+00
        68.058791      147.514795     1156.946654     1     0     0     0     1   1.560 0.653E-01 0.131E+00 0.000E+00
        72.660095      132.359960      253.137131     7     2     0     0     1   2.981 0.000E+00 0.000E+00 0.249E-01
       131.142124      118.697515     1622.284697     1     0     0     0     5   1.560 0.653E-01 0.131E+00 0.000E+00
        76.200416       95.303656      155.468000    12     8     0     0     6   3.568 0.000E+00 0.000E+00 0.528E+00
        63.514784        9.564383      426.956287     9     0     0     0     3   3.240 0.653E-25 0.131E-24 0.262E-12
       194.953378       31.553957      120.838931    11    12     0     0     8   3.466 0.000E+00 0.000E+00 0.118E+01
        59.942700       23.938973      303.833771    18     0     0     0     2   4.080 0.653E-52 0.131E-51 0.263E-15
        99.749110      169.042280      201.817924    13     5     0     0     7   3.664 0.000E+00 0.000E+00 0.480E-01
        73.355144       49.384620      195.987254     5     4     0     0     6   2.665 0.000E+00 0.000E+00 0.314E+00
       164.246715      167.948890      885.664037     1     0     0     0     5   1.560 0.653E-01 0.131E+00 0.000E+00
        93.070350       90.751212      911.882230    45     0     0     0     5   5.540 0.653-133 0.131-132 0.325E-18
       121.818578       42.282754      474.555443    11     0     0     0     8   3.470 0.653E-31 0.131E-30 0.290E-13
       140.998689       86.963348      101.502835     7     5     0     0     8   2.981 0.000E+00 0.000E+00 0.365E+00
       101.224175      186.258487      221.090993    14     3     0     0     8   3.756 0.000E+00 0.000E+00 0.325E-01
       188.134533       74.787424      175.262033    17    12     0     0     7   4.007 0.000E+00 0.000E+00 0.790E+00
       131.003527      135.578536      417.679856    15     0     0     0     4   3.840 0.653E-43 0.131E-42 0.134E-14
       113.483827        2.100829     1475.383019     1     0     0     0     7   1.560 0.653E-01 0.131E+00 0.000E+00
        33.819008      185.434281      627.026582    16     0     0     0     8   3.930 0.653E-46 0.131E-45 0.747E-15
       198.706249       28.854689      618.456514    26     0     0     0     2   4.620 0.653E-76 0.131E-75 0.136E-16
         3.383076        8.990276       94.711516    24    15     0     0     8   4.495 0.000E+00 0.000E+00 0.914E+00
       182.536515      123.660241      154.057776    12     9     0     0     7   3.568 0.000E+00 0.000E+00 0.625E+00
       174.540021      182.971298      217.515010    10     3     0     0     3   3.357 0.000E+00 0.000E+00 0.329E-01
       197.314632       79.041790      128.483059     7     9     0     0     2   2.981 0.000E+00 0.000E+00 0.101E+01
        27.083587       16.609617      372.239203     9     0     0     0     2   3.240 0.653E-25 0.131E-24 0.262E-12
       173.044752      184.239195      986.023322     1     0     0     0     8   1.560 0.653E-01 0.131E+00 0.000E+00
       172.748208       89.873904     1837.674659     1     0     0     0     4   1.560 0.653E-01 0.131E+00 0.000E+00
       174.794023      145.135793      574.364041     7     0     0     0     5   2.980 0.653E-19 0.131E-18 0.492E-07
        73.522106      167.321733     1268.504362     1     0     0     0     8   1.560 0.653E-01 0.131E+00 0.000E+00
        93.024411      139.894656      625.214478    18     0     0     0     3   4.080 0.653E-52 0.131E-51 0.263E-15
        84.249420       51.644100      299.627423     8     0     0     0     1   3.120 0.653E-22 0.131E-21 0.151E-08
        83.675030       86.362751      489.752464    17     0     0     0     5   4.010 0.653E-49 0.131E-48 0.434E-15
       166.500899       84.496367      769.340898    20     0     0     0     3   4.230 0.653E-58 0.131E-57 0.108E-15
       114.761103      101.063241       80.083514     9     7     0     0     1   3.241 0.000E+00 0.000E+00 0.503E+00
       153.043884      171.811817     1547.407305     1     0     0     0     6   1.560 0.653E-01 0.131E+00 0.000E+00
       111.711104      144.736190       33.056811     6     4     0     0     4   2.832 0.000E+00 0.000E+00 0.444E-01
       157.066830       30.971370      286.115563    11     0     0     0     2   3.470 0.653E-31 0.131E-30 0.290E-13
        16.698661      154.469899      359.965798    10     0     0     0     7   3.360 0.653E-28 0.131E-27 0.801E-13
        57.884074      124.715457       70.313490    12    12     0     0     4   3.568 0.000E+00 0.000E+00 0.106E+01
        74.651841       10.524273      640.671566    20     0     0     0     3   4.230 0.653E-58 0.131E-57 0.108E-15
       163.759382      194.260116      700.347634    26     0     0     0     8   4.620 0.653E-76 0.131E-75 0.136E-16
         7.068869      105.832722       86.135320    13    16     0     0     4   3.664 0.000E+00 0.000E+00 0.220E+01
        50.483664       55.314263      342.001508    11     1     0     0     2   3.466 0.000E+00 0.000E+00 0.154E-01
       110.532367      164.015391       40.731932     7     5     0     0     1   2.981 0.000E+00 0.000E+00 0.365E+00
        81.948468       71.784479      726.114061    13     0     0     0     2   3.660 0.653E-37 0.131E-36 0.527E-14
       189.274453      144.939571      795.019819    19     0     0     0     4   4.160 0.653E-55 0.131E-54 0.166E-15
        77.048260      155.468386      578.055124    14     0     0     0     8   3.760 0.653E-40 0.131E-39 0.258E-14
        59.622652      166.097306     1347.778254     1     0     0     0     7   1.560 0.653E-01 0.131E+00 0.000E+00
       164.514540        0.054582      184.467838    18     8     0     0     5   4.084 0.000E+00 0.000E+00 0.468E+00
       178.642297      131.002360      373.665615    11     0     0     0     7   3.470 0.653E-31 0.131E-30 0.290E-13
         9.968392      150.849465      389.379456    15     0     0     0     8   3.840 0.653E-43 0.131E-42 0.134E-14
        19.573486       64.596213     1710.684821     1     0     0     0     5   1.560 0.653E-01 0.131E+00 0.000E+00
       170.722134      122.016430     1110.443775     1     0     0     0     6   1.560 0.653E-01 0.131E+00 0.000E+00
        81.740453       40.801116      619.303770    11     0     0     0     7   3.470 0.653E-31 0.131E-30 0.290E-13
       118.313144      104.423288      852.467424    32     0     0     0     1   4.950 0.653E-94 0.131E-93 0.302E-17
       122.726659       38.649775      783.797179    24     0     0     0     8   4.500 0.653E-70 0.131E-69 0.249E-16
       122.847730      134.822810       83.015571    11     9     0     0     4   3.466 0.000E+00 0.000E+00 0.657E+00
        66.581329      110.348930      239.755886     8     3     0     0     4   3.117 0.000E+00 0.000E+00 0.333E-01
       194.970010      180.427665      386.196369    15     0     0     0     5   3.840 0.653E-43 0.131E-42 0.134E-14
        58.837142       16.592153     1288.540560     1     0     0     0     1   1.560 0.653E-01 0.131E+00 0.000E+00
        56.125928       34.467474      926.014278     1     0     0     0     1   1.560 0.653E-01 0.131E+00 0.000E+00
       116.469202       70.550058      668.714295    10     0     0     0     8   3.360 0.653E-28 0.131E-27 0.801E-13
       124.471473       44.007639      202.775747    17    10     0     0     4   4.007 0.000E+00 0.000E+00 0.612E+00
       126.635138       70.994907       58.804537    13     9     0     0     2   3.664 0.000E+00 0.000E+00 0.599E+00
        76.931506      118.525874      682.106061    20     0     0     0     6   4.230 0.653E-58 0.131E-57 0.108E-15
       128.069791      115.342405     2077.166484     1     0     0     0     6   1.560 0.653E-01 0.131E+00 0.000E+00
        44.510499       36.679824      216.992032     9     5     0     0     7   3.241 0.000E+00 0.000E+00 0.507E-01
        86.314513      168.032188     1225.784714     1     0     0     0     5   1.560 0.653E-01 0.131E+00 0.000E+00
       163.899657       47.470992      252.619155     8     3     0     0     5   3.117 0.000E+00 0.000E+00 0.333E-01
        37.395648       99.975636      587.599734    12     0     0     0     3   3.570 0.653E-34 0.131E-33 0.118E-13
         2.509387       35.363250     1438.020603     1     0     0     0     8   1.560 0.653E-01 0.131E+00 0.000E+00
       197.204266       37.593889      237.783320     8     2     0     0     3   3.117 0.000E+00 0.000E+00 0.248E-01
       178.548534       92.495927     1345.617669     1     0     0     0     6   1.560 0.653E-01 0.131E+00 0.000E+00
        11.897631       96.102907      270.102150    14     3     0     0     5   3.756 0.000E+00 0.000E+00 0.325E-01
       118.167413      169.709737      691.073765    24     0     0     0     2   4.500 0.653E-70 0.131E-69 0.249E-16
        64.556375       46.922439      388.368970    11     0     0     0     2   3.470 0.653E-31 0.131E-30 0.290E-13
       199.498014      176.036191      779.627938    12     0     0     0     6   3.570 0.653E-34 0.131E-33 0.118E-13
       156.294016        8.339443      228.344728     6     4     0     0     7   2.832 0.000E+00 0.000E+00 0.444E-01
       175.505253      198.001789      114.025482    12     5     0     0     4   3.568 0.000E+00 0.000E+00 0.327E+00
       156.156103      158.149974      228.244611    11     3     0     0     1   3.466 0.000E+00 0.000E+00 0.328E-01
       150.577785       91.666508     1863.449411     1     0     0     0     6   1.560 0.653E-01 0.131E+00 0.000E+00