ITEM: TIMESTEP
0
ITEM: NUMBER OF ATOMS
         523
ITEM: BOX BOUNDS pp pp pp
  0.0000000E+00   200.000000000000     
  0.0000000E+00   200.000000000000     
  0.0000000E+00   5000.00000000000     
ITEM: ATOMS x y z f1 f2 f3 f4 orient radius rate_mig rate_rot rate_emit
       180.158755      191.942447      191.116486    14     8     0     0     3   3.756 0.000E+00 0.000E+00 0.844E+00
        92.433881      170.491461      138.245294    13     7     0     0     8   3.664 0.000E+00 0.000E+00 0.114E+00
        18.077024       95.755857      327.978975    17     0     0     0     4   4.010 0.107E-48 0.214E-48 0.123E-14
        32.370717       89.436430     2037.904918     1     0     0     0     1   1.560 0.107E+00 0.214E+00 0.000E+00
       135.710094       97.828391      111.256665    10    11     0     0     2   3.357 0.000E+00 0.000E+00 0.179E+01
        24.010178       12.065779       94.375933    16    11     0     0     7   3.927 0.000E+00 0.000E+00 0.121E+01
        53.686581       88.143623      695.932070    19     0     0     0     2   4.160 0.107E-54 0.214E-54 0.478E-15
       197.666948       80.736528      489.120152    16     0     0     0     5   3.930 0.107E-45 0.214E-45 0.210E-14
        44.320441       51.839916      773.015850    24     0     0     0     3   4.500 0.107E-69 0.214E-69 0.743E-16
        62.596376      142.325975      174.362461    17     4     0     0     6   4.007 0.000E+00 0.000E+00 0.692E-01
       192.732729       57.254654     1681.368820     1     0     0     0     1   1.560 0.107E+00 0.214E+00 0.000E+00
       118.756428       77.532862      163.896739    17    10     0     0     4   4.007 0.000E+00 0.000E+00 0.103E+01
       194.942997       13.842474        8.725081     5     0     0     0     4   2.660 0.107E-12 0.214E-12 0.231E-06
       185.426611       31.295317      486.032669    18     0     0     0     2   4.080 0.107E-51 0.214E-51 0.753E-15
       116.105942        4.551717      458.572817     9     0     0     0     8   3.240 0.107E-24 0.214E-24 0.669E-12
        79.016203        3.171207      685.268528    21     0     0     0     1   4.300 0.107E-60 0.214E-60 0.210E-15
       165.927880       83.647822      344.094978    16     1     0     0     8   3.927 0.000E+00 0.000E+00 0.268E-01
        98.237489        4.501858      325.001990     8     0     0     0     6   3.120 0.107E-21 0.214E-21 0.337E-08
        43.252624      143.434556     1407.153280     1     0     0     0     5   1.560 0.107E+00 0.214E+00 0.000E+00
        47.354822       84.449048      158.471204     9     6     0     0     4   3.241 0.000E+00 0.000E+00 0.107E+00
        81.193877       58.511072     1272.043601     1     0     0     0     2   1.560 0.107E+00 0.214E+00 0.000E+00
       194.869118       39.485084      213.927308     9     4     0     0     1   3.241 0.000E+00 0.000E+00 0.723E-01
        33.652471      128.282407      806.545984    26     0     0     0     5   4.620 0.107E-75 0.214E-75 0.408E-16
       120.987692       93.228463      419.160634    12     0     0     0     6   3.570 0.107E-33 0.214E-33 0.317E-13
        32.189829       34.669919      305.024077     9     2     0     0     6   3.241 0.000E+00 0.000E+00 0.432E-01
       173.919202      110.405202      116.268054    12    12     0     0     2   3.568 0.000E+00 0.000E+00 0.178E+01
       105.412705      181.900153      465.141268    20     0     0     0     6   4.230 0.107E-57 0.214E-57 0.314E-15
        98.346471       94.913011     1142.922239     1     0     0     0     8   1.560 0.107E+00 0.214E+00 0.000E+00
        83.966064       99.326677     1545.183183     1     0     0     0     5   1.560 0.107E+00 0.214E+00 0.000E+00
       148.202653      198.443104       84.509234    12     9     0     0     2   3.568 0.000E+00 0.000E+00 0.105E+01
         2.862109      118.480941      758.360725    18     0     0     0     3   4.080 0.107E-51 0.214E-51 0.753E-15
       141.897536       63.343014      565.356000    13     0     0     0     8   3.660 0.107E-36 0.214E-36 0.144E-13
        32.192202      118.320390      682.922112    13     0     0     0     5   3.660 0.107E-36 0.214E-36 0.144E-13
       120.531350       69.535966      495.664905     9     0     0     0     2   3.240 0.107E-24 0.214E-24 0.669E-12
        29.151122        2.868140      960.446513    25     0     0     0     2   4.560 0.107E-72 0.214E-72 0.544E-16
       192.165730      135.997317      620.823106    22     0     0     0     7   4.370 0.107E-63 0.214E-63 0.146E-15
       105.636755       96.246122       77.162972    12     9     0     0     8   3.568 0.000E+00 0.000E+00 0.105E+01
         2.717949      136.028364     1383.542193     1     0     0     0     5   1.560 0.107E+00 0.214E+00 0.000E+00
       125.251883       48.286411      660.119129    27     0     0     0     1   4.680 0.107E-78 0.214E-78 0.309E-16
       156.542273      150.372366      189.882206     9     7     0     0     5   3.241 0.000E+00 0.000E+00 0.848E+00
       185.850110       48.110407     1831.687539     1     0     0     0     1   1.560 0.107E+00 0.214E+00 0.000E+00
       176.762147      168.808446     1099.715340     1     0     0     0     4   1.560 0.107E+00 0.214E+00 0.000E+00
       121.858180       90.852696       31.862258     9     5     0     0     8   3.241 0.000E+00 0.000E+00 0.883E-01
        70.462996        1.567794      126.675654    12    15     0     0     1   3.568 0.000E+00 0.000E+00 0.340E+01
        83.069466       91.154192      385.800169    10     0     0     0     3   3.360 0.107E-27 0.214E-27 0.209E-12
        84.776346       17.674247      857.278091    24     0     0     0     5   4.500 0.107E-69 0.214E-69 0.743E-16
       120.053956       52.522876      703.534843    22     0     0     0     8   4.370 0.107E-63 0.214E-63 0.146E-15
       158.292624       78.586338      415.084022    19     0     0     0     7   4.160 0.107E-54 0.214E-54 0.478E-15
        58.369825      178.232436       63.643941     9     8     0     0     2   3.241 0.000E+00 0.000E+00 0.103E+01
       150.734745       44.339680      539.575542    12     0     0     0     3   3.570 0.107E-33 0.214E-33 0.317E-13
        96.929464       24.459409     1521.523511     1     0     0     0     4   1.560 0.107E+00 0.214E+00 0.000E+00
       183.365511       87.875195       66.529253     9     6     0     0     7   3.241 0.000E+00 0.000E+00 0.107E+00
        53.647173      107.492386      400.707070    11     0     0     0     7   3.470 0.107E-30 0.214E-30 0.768E-13
       107.200382      112.739739     1012.105378     1     0     0     0     1   1.560 0.107E+00 0.214E+00 0.000E+00
         4.254788      135.226066      559.526675    19     0     0     0     4   4.160 0.107E-54 0.214E-54 0.478E-15
        94.866926        2.365819       19.328712     4     3     0     0     2   2.474 0.000E+00 0.000E+00 0.416E+00
        90.409988       14.959585      315.807017    10     0     0     0     4   3.360 0.107E-27 0.214E-27 0.209E-12
       138.212247      126.531508      307.138694    17     1     0     0     6   4.007 0.000E+00 0.000E+00 0.268E-01
        69.193054       11.089508      204.626131    19     8     0     0     7   4.158 0.000E+00 0.000E+00 0.120E+00
        88.474965       34.211840      298.612400     9     0     0     0     6   3.240 0.107E-24 0.214E-24 0.669E-12
       157.756965       58.192369     1153.463934     1     0     0     0     8   1.560 0.107E+00 0.214E+00 0.000E+00
        78.904408      151.336987     1197.321568     1     0     0     0     5   1.560 0.107E+00 0.214E+00 0.000E+00
       138.248213       95.792369      529.222476    14     0     0     0     3   3.760 0.107E-39 0.214E-39 0.711E-14
        54.975127       27.033315       91.402026    14     6     0     0     3   3.756 0.000E+00 0.000E+00 0.634E+00
        76.230508      149.699902      269.608101    25     1     0     0     1   4.557 0.000E+00 0.000E+00 0.268E-01
        72.660095      132.359960      253.137131     7     3     0     0     4   2.981 0.000E+00 0.000E+00 0.588E-01
       132.617816       23.936449     1153.027028     1     0     0     0     3   1.560 0.107E+00 0.214E+00 0.000E+00
       154.719971       93.712585       72.348555     6     4     0     0     4   2.832 0.000E+00 0.000E+00 0.773E-01
        29.524859       25.569452     1365.042574     1     0     0     0     8   1.560 0.107E+00 0.214E+00 0.000E+00
       137.376661      191.591577     1037.341946    41     0     0     0     2   5.370 0.107-120 0.214-120 0.184E-17
       134.770674       31.589511      209.956311    14     5     0     0     5   3.756 0.000E+00 0.000E+00 0.543E+00
       153.394634      110.882309      235.431680     9     3     0     0     8   3.241 0.000E+00 0.000E+00 0.577E-01
         9.034998       29.961261      372.519227    12     0     0     0     8   3.570 0.107E-33 0.214E-33 0.317E-13
       165.059451      179.583775     1898.128202     1     0     0     0     7   1.560 0.107E+00 0.214E+00 0.000E+00
       198.175322      128.462898       39.728176     8     7     0     0     4   3.117 0.000E+00 0.000E+00 0.899E+00
        49.351751      199.911892      323.751254     8     0     0     0     8   3.120 0.107E-21 0.214E-21 0.337E-08
        57.884074      124.715457       70.313490    12    11     0     0     6   3.568 0.000E+00 0.000E+00 0.148E+01
       142.663830      129.976017      590.271989    23     0     0     0     1   4.430 0.107E-66 0.214E-66 0.103E-15
       168.023199       90.236262     1429.709384     1     0     0     0     4   1.560 0.107E+00 0.214E+00 0.000E+00
       136.157686      115.145489      382.870616     6     0     0     0     6   2.830 0.107E-15 0.214E-15 0.228E-08
       182.536515      123.660241      154.057776    12    10     0     0     7   3.568 0.000E+00 0.000E+00 0.124E+01
       122.016828       20.901319     1638.788847     1     0     0     0     8   1.560 0.107E+00 0.214E+00 0.000E+00
        22.528372      105.118543     2058.782817     1     0     0     0     7   1.560 0.107E+00 0.214E+00 0.000E+00
        72.935096      195.157005      282.490223     6     0     0     0     5   2.830 0.107E-15 0.214E-15 0.228E-08
        20.533618       83.983208       73.034931    10     8     0     0     2   3.357 0.000E+00 0.000E+00 0.971E+00
       100.498573       41.635112      149.637204     9     7     0     0     4   3.241 0.000E+00 0.000E+00 0.848E+00
        60.417548      130.363535     2049.632587     1     0     0     0     1   1.560 0.107E+00 0.214E+00 0.000E+00
        14.356484        0.529404       92.326420     6     4     0     0     3   2.832 0.000E+00 0.000E+00 0.773E-01
       139.698075      159.703354      387.870412     8     0     0     0     6   3.120 0.107E-21 0.214E-21 0.337E-08
        53.163309      111.314124       89.989475     9    10     0     0     5   3.241 0.000E+00 0.000E+00 0.161E+01
       134.691756       73.108936      514.584422    20     0     0     0     1   4.230 0.107E-57 0.214E-57 0.314E-15
        69.915281       31.162092      407.321537    11     0     0     0     4   3.470 0.107E-30 0.214E-30 0.768E-13
       192.681945       49.246727       64.439787    14     7     0     0     7   3.756 0.000E+00 0.000E+00 0.733E+00
       195.199426      195.538805      152.875568    12     5     0     0     3   3.568 0.000E+00 0.000E+00 0.552E+00
       131.024633      110.421748      159.034370    10     9     0     0     6   3.357 0.000E+00 0.000E+00 0.118E+01
        47.815967       75.836501      316.915706     9     0     0     0     6   3.240 0.107E-24 0.214E-24 0.669E-12
        74.953408       16.705855      123.657347     8     6     0     0     3   3.117 0.000E+00 0.000E+00 0.111E+00
        50.462968      182.691284      871.456278    34     0     0     0     1   5.050 0.107E-99 0.214E-99 0.618E-17
        43.644571      116.036595      124.681332    13    13     0     0     6   3.664 0.000E+00 0.000E+00 0.197E+01
       148.745217       55.023919     1792.904707     1     0     0     0     8   1.560 0.107E+00 0.214E+00 0.000E+00
        20.316145       14.964571      266.941194    10     3     0     0     2   3.357 0.000E+00 0.000E+00 0.574E-01
       164.514540        0.054582      184.467838    18     8     0     0     2   4.084 0.000E+00 0.000E+00 0.791E+00
       142.025835       25.090515      831.189079    14     0     0     0     6   3.760 0.107E-39 0.214E-39 0.711E-14
        29.144327       51.612086      654.601244    14     0     0     0     4   3.760 0.107E-39 0.214E-39 0.711E-14
       101.630774      133.600193      274.102567    11     1     0     0     1   3.466 0.000E+00 0.000E+00 0.269E-01
       131.505441       81.997954     2048.568206     1     0     0     0     2   1.560 0.107E+00 0.214E+00 0.000E+00
       144.497725       61.239522      321.732739    16     2     0     0     6   3.927 0.000E+00 0.000E+00 0.428E-01
        22.497943      160.432904     1215.523559     1     0     0     0     5   1.560 0.107E+00 0.214E+00 0.000E+00
       147.011756      187.597028      659.470206    20     0     0     0     5   4.230 0.107E-57 0.214E-57 0.314E-15
       156.833165       82.166430      500.425169    12     0     0     0     3   3.570 0.107E-33 0.214E-33 0.317E-13
        23.171388      155.084804       97.864350    17    11     0     0     4   4.007 0.000E+00 0.000E+00 0.117E+01
       191.645150      195.307816      230.540179    16     2     0     0     4   3.927 0.000E+00 0.000E+00 0.428E-01
        98.301410      178.857539     1383.869775     1     0     0     0     3   1.560 0.107E+00 0.214E+00 0.000E+00
       156.951282      111.389702      216.727265    19     6     0     0     6   4.158 0.000E+00 0.000E+00 0.936E-01
       146.496027       50.757826       95.220335     8     5     0     0     2   3.117 0.000E+00 0.000E+00 0.906E-01
       180.928504       22.893776      498.095555    14     0     0     0     4   3.760 0.107E-39 0.214E-39 0.711E-14
        65.967448       49.346885      650.917390    21     0     0     0     6   4.300 0.107E-60 0.214E-60 0.210E-15
       122.167492       39.868017      135.847786    16    16     0     0     8   3.927 0.000E+00 0.000E+00 0.259E+01
       162.162090       53.924609     1457.986140     1     0     0     0     6   1.560 0.107E+00 0.214E+00 0.000E+00
       140.362619      149.793031     2113.649752     1     0     0     0     6   1.560 0.107E+00 0.214E+00 0.000E+00
        20.240241      165.908759       62.109052    12    10     0     0     3   3.568 0.000E+00 0.000E+00 0.124E+01
       156.294016        8.339443      228.344728     6     4     0     0     1   2.832 0.000E+00 0.000E+00 0.773E-01
        10.605582       84.411499      697.701822    15     0     0     0     3   3.840 0.107E-42 0.214E-42 0.374E-14
       184.077770      140.936398      585.808387    15     0     0     0     3   3.840 0.107E-42 0.214E-42 0.374E-14
       180.615471       48.912377     1700.896609     1     0     0     0     4   1.560 0.107E+00 0.214E+00 0.000E+00
       187.804135       88.098847      320.517775    12     1     0     0     5   3.568 0.000E+00 0.000E+00 0.269E-01
        94.656289      139.871803      191.245201    24    11     0     0     4   4.495 0.000E+00 0.000E+00 0.103E+01
       176.975352       45.201889     1097.386641     1     0     0     0     8   1.560 0.107E+00 0.214E+00 0.000E+00
        80.195313       28.451130      592.027274    19     0     0     0     8   4.160 0.107E-54 0.214E-54 0.478E-15
        80.422664      138.339351      756.990888    16     0     0     0     6   3.930 0.107E-45 0.214E-45 0.210E-14
         5.545140       14.653202       22.317900    10     5     0     0     7   3.357 0.000E+00 0.000E+00 0.568E+00
       116.490358       58.226885      100.210725    10     5     0     0     7   3.357 0.000E+00 0.000E+00 0.568E+00
       185.519586       83.619158       99.297485    12     7     0     0     6   3.568 0.000E+00 0.000E+00 0.762E+00
        63.090243        4.810164      365.906754    19     1     0     0     6   4.158 0.000E+00 0.000E+00 0.268E-01
       172.909563      124.022744      340.917032    13     0     0     0     1   3.660 0.107E-36 0.214E-36 0.144E-13
        38.052992      144.469370      277.458803    16     0     0     0     5   3.930 0.107E-45 0.214E-45 0.210E-14
        82.658531      117.489808      437.260206    13     0     0     0     7   3.660 0.107E-36 0.214E-36 0.144E-13
        29.517632      132.082724     1528.578013     1     0     0     0     5   1.560 0.107E+00 0.214E+00 0.000E+00
        39.214013       95.003217     2122.739608     1     0     0     0     5   1.560 0.107E+00 0.214E+00 0.000E+00
        33.229912      114.915526      166.901534    14    11     0     0     3   3.756 0.000E+00 0.000E+00 0.132E+01
         4.573297      141.682151     1286.542738     1     0     0     0     5   1.560 0.107E+00 0.214E+00 0.000E+00
        48.486745       45.111564     1776.801051     1     0     0     0     1   1.560 0.107E+00 0.214E+00 0.000E+00
        52.189601       96.775709      434.766350    15     0     0     0     1   3.840 0.107E-42 0.214E-42 0.374E-14
       110.950036       50.640686     1182.235992     1     0     0     0     8   1.560 0.107E+00 0.214E+00 0.000E+00
       106.199210      145.446176      375.731000    11     0     0     0     6   3.470 0.107E-30 0.214E-30 0.768E-13
        98.061691      142.047210       23.025201     6     4     0     0     5   2.832 0.000E+00 0.000E+00 0.773E-01
        33.949085      189.655045      289.120468     6     0     0     0     2   2.830 0.107E-15 0.214E-15 0.228E-08
        74.125379      186.008205      224.895500    15     0     0     0     6   3.840 0.107E-42 0.214E-42 0.374E-14
       107.280029       69.512174      796.301420    21     0     0     0     3   4.300 0.107E-60 0.214E-60 0.210E-15
       187.099156       25.839670      594.451228    18     0     0     0     5   4.080 0.107E-51 0.214E-51 0.753E-15
       154.114390      184.525554       75.340852    13    10     0     0     2   3.664 0.000E+00 0.000E+00 0.118E+01
       140.277058      119.318535      725.001754    24     0     0     0     7   4.500 0.107E-69 0.214E-69 0.743E-16
       183.058259      157.405006      921.293093    31     0     0     0     5   4.900 0.107E-90 0.214E-90 0.116E-16
       167.082795      130.484526      510.113699    10     0     0     0     1   3.360 0.107E-27 0.214E-27 0.209E-12
       189.625262       48.658551       51.156701    14    11     0     0     3   3.756 0.000E+00 0.000E+00 0.132E+01
        83.578519      100.506524      290.298083    11     3     0     0     5   3.466 0.000E+00 0.000E+00 0.572E-01
       126.635138       70.994907       58.804537    13     7     0     0     3   3.664 0.000E+00 0.000E+00 0.114E+00
        16.482184       56.621577     1816.532029     1     0     0     0     8   1.560 0.107E+00 0.214E+00 0.000E+00
       169.600259      190.786053       58.845924     9     8     0     0     8   3.241 0.000E+00 0.000E+00 0.103E+01
       137.206159      159.188233      820.382391    22     0     0     0     8   4.370 0.107E-63 0.214E-63 0.146E-15
        14.297527      191.558534      818.868754    16     0     0     0     4   3.930 0.107E-45 0.214E-45 0.210E-14
       186.506977       27.125986      560.284272    23     0     0     0     4   4.430 0.107E-66 0.214E-66 0.103E-15
        85.775693       80.531238      160.166091     9     6     0     0     7   3.241 0.000E+00 0.000E+00 0.107E+00
       155.472320      182.582328      629.701769    20     0     0     0     7   4.230 0.107E-57 0.214E-57 0.314E-15
        94.867854       38.770102       46.299938    14     5     0     0     7   3.756 0.000E+00 0.000E+00 0.543E+00
        74.043489       38.564483     1751.374829     1     0     0     0     6   1.560 0.107E+00 0.214E+00 0.000E+00
        19.254229       79.038506      189.797689    18     7     0     0     1   4.084 0.000E+00 0.000E+00 0.700E+00
       111.711104      144.736190       33.056811     6     3     0     0     5   2.832 0.000E+00 0.000E+00 0.596E-01
        34.333920       30.164985     1197.234356     1     0     0     0     2   1.560 0.107E+00 0.214E+00 0.000E+00
       104.256922      191.293224      419.995838    18     0     0     0     2   4.080 0.107E-51 0.214E-51 0.753E-15
        91.242323      103.185768      131.290292    10     7     0     0     6   3.357 0.000E+00 0.000E+00 0.811E+00
        75.971665      152.262519     1152.198929     1     0     0     0     5   1.560 0.107E+00 0.214E+00 0.000E+00
        66.581329      110.348930      239.755886     8     1     0     0     4   3.117 0.000E+00 0.000E+00 0.269E-01
       134.307273      121.862665     1625.449847     1     0     0     0     1   1.560 0.107E+00 0.214E+00 0.000E+00
       156.144721       56.550525      237.821346    10     3     0     0     1   3.357 0.000E+00 0.000E+00 0.574E-01
        63.514784        9.564383      426.956287     9     0     0     0     3   3.240 0.107E-24 0.214E-24 0.669E-12
       110.532367      164.015391       40.731932     7     6     0     0     1   2.981 0.000E+00 0.000E+00 0.772E+00
        59.942700       23.938973      303.833771    18     0     0     0     2   4.080 0.107E-51 0.214E-51 0.753E-15
        87.167441      168.430487       78.865369     8     6     0     0     5   3.117 0.000E+00 0.000E+00 0.111E+00
       197.314632       79.041790      128.483059     7     8     0     0     2   2.981 0.000E+00 0.000E+00 0.126E+01
       165.829290      166.366315      884.081462     1     0     0     0     4   1.560 0.107E+00 0.214E+00 0.000E+00
        93.070350       90.751212      911.882230    45     0     0     0     5   5.540 0.107-132 0.214-132 0.104E-17
       121.818578       42.282754      474.555443    11     0     0     0     8   3.470 0.107E-30 0.214E-30 0.768E-13
        78.005218      183.157072      213.472464     5     3     0     0     3   2.665 0.000E+00 0.000E+00 0.399E+00
       101.224175      186.258487      221.090993    14     5     0     0     1   3.756 0.000E+00 0.000E+00 0.543E+00
        13.844866       53.071363       10.988686     8     3     0     0     8   3.117 0.000E+00 0.000E+00 0.581E-01
       131.003527      135.578536      417.679856    15     0     0     0     4   3.840 0.107E-42 0.214E-42 0.374E-14
       113.483827        2.100829     1475.383019     1     0     0     0     7   1.560 0.107E+00 0.214E+00 0.000E+00
        33.819008      185.434281      627.026582    16     0     0     0     8   3.930 0.107E-45 0.214E-45 0.210E-14
       198.706249       28.854689      618.456514    26     0     0     0     2   4.620 0.107E-75 0.214E-75 0.408E-16
        78.948477      186.130533      270.538431     9     1     0     0     7   3.241 0.000E+00 0.000E+00 0.269E-01
        88.623267      144.174665       88.564805    12     9     0     0     3   3.568 0.000E+00 0.000E+00 0.105E+01
        67.039214       19.488600      235.468423    16     2     0     0     4   3.927 0.000E+00 0.000E+00 0.428E-01
        15.647586      133.934744      233.294877    17     6     0     0     6   4.007 0.000E+00 0.000E+00 0.619E+00
        27.083587       16.609617      372.239203     9     0     0     0     2   3.240 0.107E-24 0.214E-24 0.669E-12
       174.627327      188.986920      984.440747     1     0     0     0     8   1.560 0.107E+00 0.214E+00 0.000E+00
       174.330782       91.456479     1839.257233     1     0     0     0     6   1.560 0.107E+00 0.214E+00 0.000E+00
       174.794023      145.135793      574.364041     7     0     0     0     5   2.980 0.107E-18 0.214E-18 0.104E-06
        68.774381      165.739158     1266.921787     1     0     0     0     7   1.560 0.107E+00 0.214E+00 0.000E+00
        93.024411      139.894656      625.214478    18     0     0     0     3   4.080 0.107E-51 0.214E-51 0.753E-15
        84.249420       51.644100      299.627423     8     0     0     0     1   3.120 0.107E-21 0.214E-21 0.337E-08
        83.675030       86.362751      489.752464    17     0     0     0     5   4.010 0.107E-48 0.214E-48 0.123E-14
       166.500899       84.496367      769.340898    20     0     0     0     3   4.230 0.107E-57 0.214E-57 0.314E-15
       158.619432       76.161732      107.038533    11     8     0     0     6   3.466 0.000E+00 0.000E+00 0.925E+00
       153.043884      168.646667     1547.407305     1     0     0     0     7   1.560 0.107E+00 0.214E+00 0.000E+00
         3.183738       87.720472      301.069663     8     3     0     0     8   3.117 0.000E+00 0.000E+00 0.581E-01
       157.066830       30.971370      286.115563    11     0     0     0     2   3.470 0.107E-30 0.214E-30 0.768E-13
        16.698661      154.469899      359.965798    10     0     0     0     7   3.360 0.107E-27 0.214E-27 0.209E-12
        78.912266       17.473473      338.143712    13     1     0     0     2   3.664 0.000E+00 0.000E+00 0.141E-02
        74.651841       10.524273      640.671566    20     0     0     0     3   4.230 0.107E-57 0.214E-57 0.314E-15
       163.759382      194.260116      700.347634    26     0     0     0     8   4.620 0.107E-75 0.214E-75 0.408E-16
         3.383076        8.990276       94.711516    24    16     0     0     6   4.495 0.000E+00 0.000E+00 0.171E+01
        50.483664       55.314263      342.001508    11     1     0     0     2   3.466 0.000E+00 0.000E+00 0.269E-01
        72.878291        7.945426      166.329290    11     9     0     0     7   3.466 0.000E+00 0.000E+00 0.111E+01
        81.948468       71.784479      726.114061    13     0     0     0     2   3.660 0.107E-36 0.214E-36 0.144E-13
       189.274453      144.939571      795.019819    19     0     0     0     4   4.160 0.107E-54 0.214E-54 0.478E-15
        77.048260      155.468386      578.055124    14     0     0     0     8   3.760 0.107E-39 0.214E-39 0.711E-14
        59.622652      156.601857     1347.778254     1     0     0     0     7   1.560 0.107E+00 0.214E+00 0.000E+00
       123.896019       60.025816       67.631162     8     7     0     0     7   3.117 0.000E+00 0.000E+00 0.899E+00
       178.642297      131.002360      373.665615    11     0     0     0     7   3.470 0.107E-30 0.214E-30 0.768E-13
         9.968392      150.849465      389.379456    15     0     0     0     8   3.840 0.107E-42 0.214E-42 0.374E-14
        24.321211       63.013639     1705.937096     1     0     0     0     8   1.560 0.107E+00 0.214E+00 0.000E+00
       172.304708      120.433856     1115.191500     1     0     0     0     3   1.560 0.107E+00 0.214E+00 0.000E+00
        81.740453       40.801116      619.303770    11     0     0     0     7   3.470 0.107E-30 0.214E-30 0.768E-13
       118.313144      104.423288      852.467424    32     0     0     0     1   4.950 0.107E-93 0.214E-93 0.931E-17
       122.726659       38.649775      783.797179    24     0     0     0     8   4.500 0.107E-69 0.214E-69 0.743E-16
       162.106260       26.007547      264.802995    12     2     0     0     2   3.568 0.000E+00 0.000E+00 0.429E-01
       197.204266       37.593889      237.783320     8     3     0     0     2   3.117 0.000E+00 0.000E+00 0.581E-01
       194.970010      180.427665      386.196369    15     0     0     0     5   3.840 0.107E-42 0.214E-42 0.374E-14
        55.671992       13.427004     1285.375410     1     0     0     0     5   1.560 0.107E+00 0.214E+00 0.000E+00
        57.708503       32.884899      921.266554     1     0     0     0     3   1.560 0.107E+00 0.214E+00 0.000E+00
       116.469202       70.550058      668.714295    10     0     0     0     8   3.360 0.107E-27 0.214E-27 0.209E-12
       144.341793      127.742978      244.927566     9     6     0     0     6   3.241 0.000E+00 0.000E+00 0.107E+00
        86.285633      164.519133      163.374767    14     8     0     0     2   3.756 0.000E+00 0.000E+00 0.844E+00
        76.931506      118.525874      682.106061    20     0     0     0     6   4.230 0.107E-57 0.214E-57 0.314E-15
       126.487216      116.924980     2075.583909     1     0     0     0     4   1.560 0.107E+00 0.214E+00 0.000E+00
       117.318408      117.789184      106.004935    11     6     0     0     2   3.466 0.000E+00 0.000E+00 0.101E+00
        83.149363      164.867039     1222.619565     1     0     0     0     2   1.560 0.107E+00 0.214E+00 0.000E+00
       197.473397      165.572987      220.150275    13     9     0     0     8   3.664 0.000E+00 0.000E+00 0.101E+01
        37.395648       99.975636      587.599734    12     0     0     0     3   3.570 0.107E-33 0.214E-33 0.317E-13
         0.926812       33.780676     1436.438028     1     0     0     0     2   1.560 0.107E+00 0.214E+00 0.000E+00
        58.487605      198.702774      218.865639    11     5     0     0     1   3.466 0.000E+00 0.000E+00 0.854E-01
       176.965959       94.078502     1347.200244     1     0     0     0     6   1.560 0.107E+00 0.214E+00 0.000E+00
       149.523570       24.503941      234.071743    10     4     0     0     3   3.357 0.000E+00 0.000E+00 0.715E-01
       118.167413      169.709737      691.073765    24     0     0     0     2   4.500 0.107E-69 0.214E-69 0.743E-16
        64.556375       46.922439      388.368970    11     0     0     0     2   3.470 0.107E-30 0.214E-30 0.768E-13
       199.498014      176.036191      779.627938    12     0     0     0     6   3.570 0.107E-33 0.214E-33 0.317E-13
       142.314409      191.032037       42.048257    14     6     0     0     8   3.756 0.000E+00 0.000E+00 0.634E+00
        63.585400      127.145171      101.709727    11    10     0     0     3   3.466 0.000E+00 0.000E+00 0.132E+01
        86.620927      153.975224      121.417730    11    10     0     0     4   3.466 0.000E+00 0.000E+00 0.132E+01
       156.908085       91.666508     1863.449411     1     0     0     0     8   1.560 0.107E+00 0.214E+00 0.000E+00