ITEM: TIMESTEP
0
ITEM: NUMBER OF ATOMS
         523
ITEM: BOX BOUNDS pp pp pp
  0.0000000E+00   200.000000000000     
  0.0000000E+00   200.000000000000     
  0.0000000E+00   5000.00000000000     
ITEM: ATOMS x y z f1 f2 f3 f4 orient radius rate_mig rate_rot rate_emit
        92.433881      170.491461      138.245294    13     7     0     0     8   3.664 0.000E+00 0.000E+00 0.328E+00
       178.167335      159.217288       40.589806     7     4     0     0     8   2.981 0.000E+00 0.000E+00 0.216E+00
        18.077024       95.755857      327.978975    17     0     0     0     4   4.010 0.274E-48 0.548E-48 0.902E-14
        32.370717       92.601579     2037.904918     1     0     0     0     6   1.560 0.274E+00 0.548E+00 0.000E+00
       194.953378       31.553957      120.838931    11     6     0     0     1   3.466 0.000E+00 0.000E+00 0.292E+00
        73.355144       49.384620      195.987254     5     2     0     0     3   2.665 0.000E+00 0.000E+00 0.127E+00
        53.686581       88.143623      695.932070    19     0     0     0     2   4.160 0.274E-54 0.548E-54 0.361E-14
       197.666948       80.736528      489.120152    16     0     0     0     5   3.930 0.274E-45 0.548E-45 0.151E-13
        44.320441       51.839916      773.015850    24     0     0     0     3   4.500 0.274E-69 0.548E-69 0.595E-15
       182.973458       80.026475      160.941458    13     9     0     0     8   3.664 0.000E+00 0.000E+00 0.273E+01
       197.480454       55.672080     1673.455946     1     0     0     0     5   1.560 0.274E+00 0.548E+00 0.000E+00
        76.230508      149.699902      269.608101    25     7     0     0     5   4.557 0.000E+00 0.000E+00 0.298E+00
       132.145149       38.579207       49.018579    16     3     0     0     3   3.927 0.000E+00 0.000E+00 0.101E+01
       185.426611       31.295317      486.032669    18     0     0     0     2   4.080 0.274E-51 0.548E-51 0.561E-14
       116.105942        4.551717      458.572817     9     0     0     0     8   3.240 0.274E-24 0.548E-24 0.401E-11
        79.016203        3.171207      685.268528    21     0     0     0     1   4.300 0.274E-60 0.548E-60 0.163E-14
        64.169159       44.376127       27.088228    12     2     0     0     6   3.568 0.000E+00 0.000E+00 0.124E+00
        98.237489        4.501858      325.001990     8     0     0     0     6   3.120 0.274E-21 0.548E-21 0.155E-07
        41.670049      141.851981     1415.066154     1     0     0     0     2   1.560 0.274E+00 0.548E+00 0.000E+00
        91.555690      168.567916       66.232380    16     6     0     0     7   3.927 0.000E+00 0.000E+00 0.170E+01
        81.193877       52.180773     1262.548152     1     0     0     0     8   1.560 0.274E+00 0.548E+00 0.000E+00
        85.775693       80.531238      160.166091     9     6     0     0     3   3.241 0.000E+00 0.000E+00 0.308E+00
        33.652471      128.282407      806.545984    26     0     0     0     5   4.620 0.274E-75 0.548E-75 0.333E-15
       120.987692       93.228463      419.160634    12     0     0     0     6   3.570 0.274E-33 0.548E-33 0.209E-12
       104.231474      128.312817       47.057942    11     6     0     0     7   3.466 0.000E+00 0.000E+00 0.292E+00
       163.398537       97.397047       98.862200     8     6     0     0     6   3.117 0.000E+00 0.000E+00 0.320E+00
       105.412705      181.900153      465.141268    20     0     0     0     6   4.230 0.274E-57 0.548E-57 0.240E-14
       107.841919       94.913011     1142.922239     1     0     0     0     8   1.560 0.274E+00 0.548E+00 0.000E+00
        74.470615       99.326677     1538.852884     1     0     0     0     7   1.560 0.274E+00 0.548E+00 0.000E+00
       154.719971       93.712585       72.348555     6     4     0     0     6   2.832 0.000E+00 0.000E+00 0.222E+00
         2.862109      118.480941      758.360725    18     0     0     0     3   4.080 0.274E-51 0.548E-51 0.561E-14
       141.897536       63.343014      565.356000    13     0     0     0     8   3.660 0.274E-36 0.548E-36 0.973E-13
        32.192202      118.320390      682.922112    13     0     0     0     5   3.660 0.274E-36 0.548E-36 0.973E-13
       120.531350       69.535966      495.664905     9     0     0     0     2   3.240 0.274E-24 0.548E-24 0.401E-11
        29.151122        2.868140      960.446513    25     0     0     0     2   4.560 0.274E-72 0.548E-72 0.440E-15
       192.165730      135.997317      620.823106    22     0     0     0     7   4.370 0.274E-63 0.548E-63 0.114E-14
        59.843688      135.981897       32.455549     6     4     0     0     1   2.832 0.000E+00 0.000E+00 0.222E+00
       199.552799      132.863214     1377.211893     1     0     0     0     2   1.560 0.274E+00 0.548E+00 0.000E+00
       125.251883       48.286411      660.119129    27     0     0     0     1   4.680 0.274E-78 0.548E-78 0.254E-15
       156.294016        8.339443      228.344728     6     3     0     0     6   2.832 0.000E+00 0.000E+00 0.172E+00
       176.354661       41.780108     1834.852689     1     0     0     0     7   1.560 0.274E+00 0.548E+00 0.000E+00
       183.092446      175.138746     1093.385041     1     0     0     0     8   1.560 0.274E+00 0.548E+00 0.000E+00
       115.982246      192.469510      202.267744    16     7     0     0     5   3.927 0.000E+00 0.000E+00 0.194E+01
       162.106260       26.007547      264.802995    12     2     0     0     7   3.568 0.000E+00 0.000E+00 0.124E+00
        83.069466       91.154192      385.800169    10     0     0     0     3   3.360 0.274E-27 0.548E-27 0.130E-11
        84.776346       17.674247      857.278091    24     0     0     0     5   4.500 0.274E-69 0.548E-69 0.595E-15
       120.053956       52.522876      703.534843    22     0     0     0     8   4.370 0.274E-63 0.548E-63 0.114E-14
       165.927880       83.647822      344.094978    16     0     0     0     2   3.930 0.274E-45 0.548E-45 0.151E-13
       170.898369      163.056464      297.043522    11     1     0     0     7   3.466 0.000E+00 0.000E+00 0.776E-01
       150.734745       44.339680      539.575542    12     0     0     0     3   3.570 0.274E-33 0.548E-33 0.209E-12
        92.181740       29.207133     1523.106086     1     0     0     0     5   1.560 0.274E+00 0.548E+00 0.000E+00
        88.623267      144.174665       88.564805    12     8     0     0     1   3.568 0.000E+00 0.000E+00 0.241E+01
        53.647173      107.492386      400.707070    11     0     0     0     7   3.470 0.274E-30 0.548E-30 0.493E-12
       108.782957      114.322314     1020.018252     1     0     0     0     8   1.560 0.274E+00 0.548E+00 0.000E+00
         4.254788      135.226066      559.526675    19     0     0     0     4   4.160 0.274E-54 0.548E-54 0.361E-14
        78.005218      183.157072      213.472464     5     2     0     0     3   2.665 0.000E+00 0.000E+00 0.127E+00
        90.409988       14.959585      315.807017    10     0     0     0     4   3.360 0.274E-27 0.548E-27 0.130E-11
        72.660095      132.359960      253.137131     7     2     0     0     1   2.981 0.000E+00 0.000E+00 0.125E+00
       164.514540        0.054582      184.467838    18     8     0     0     1   4.084 0.000E+00 0.000E+00 0.215E+01
       130.363798        4.167890      380.887033     9     1     0     0     2   3.241 0.000E+00 0.000E+00 0.776E-01
       153.009240       66.105243     1148.716210     1     0     0     0     1   1.560 0.274E+00 0.548E+00 0.000E+00
        82.069558      157.667286     1194.156418     1     0     0     0     6   1.560 0.274E+00 0.548E+00 0.000E+00
       138.248213       95.792369      529.222476    14     0     0     0     3   3.760 0.274E-39 0.548E-39 0.492E-13
       133.901392      104.550800      300.260916     9     1     0     0     5   3.241 0.000E+00 0.000E+00 0.776E-01
        60.221444      146.072946       44.664971     9     6     0     0     7   3.241 0.000E+00 0.000E+00 0.308E+00
        24.010178       12.065779       94.375933    16     5     0     0     1   3.927 0.000E+00 0.000E+00 0.146E+01
       124.704942       22.353874     1151.444453     1     0     0     0     7   1.560 0.274E+00 0.548E+00 0.000E+00
       157.880213       13.190712       30.079589     8     6     0     0     1   3.117 0.000E+00 0.000E+00 0.320E+00
        20.029411       35.064901     1361.877424     1     0     0     0     2   1.560 0.274E+00 0.548E+00 0.000E+00
       137.376661      191.591577     1037.341946    41     0     0     0     2   5.370 0.274-120 0.548-120 0.166E-16
        64.556375       46.922439      388.368970    11     1     0     0     1   3.466 0.000E+00 0.000E+00 0.776E-01
        65.012992      172.485156      348.296064    16     1     0     0     8   3.927 0.000E+00 0.000E+00 0.775E-01
         9.034998       29.961261      372.519227    12     0     0     0     8   3.570 0.274E-33 0.548E-33 0.209E-12
       166.642026      171.670901     1899.710777     1     0     0     0     2   1.560 0.274E+00 0.548E+00 0.000E+00
       147.168263      181.149738      270.992300    10     3     0     0     2   3.357 0.000E+00 0.000E+00 0.166E+00
        49.351751      199.911892      323.751254     8     0     0     0     8   3.120 0.274E-21 0.548E-21 0.155E-07
        91.242323      103.185768      131.290292    10     7     0     0     3   3.357 0.000E+00 0.000E+00 0.220E+01
       142.663830      129.976017      590.271989    23     0     0     0     1   4.430 0.274E-66 0.548E-66 0.814E-15
       163.275475       94.983986     1431.291959     1     0     0     0     4   1.560 0.274E+00 0.548E+00 0.000E+00
       136.157686      115.145489      382.870616     6     0     0     0     6   2.830 0.274E-15 0.548E-15 0.106E-07
       147.232439      155.953909      174.482297    10     7     0     0     5   3.357 0.000E+00 0.000E+00 0.220E+01
       131.512277       30.396768     1635.623697     1     0     0     0     2   1.560 0.274E+00 0.548E+00 0.000E+00
        27.276096      113.031417     2054.035092     1     0     0     0     8   1.560 0.274E+00 0.548E+00 0.000E+00
        47.354822       84.449048      158.471204     9     7     0     0     4   3.241 0.000E+00 0.000E+00 0.229E+01
        23.171388      155.084804       97.864350    17     9     0     0     3   4.007 0.000E+00 0.000E+00 0.248E+01
       149.233474      171.371095      117.226682    22    14     0     0     8   4.367 0.000E+00 0.000E+00 0.392E+01
        63.582698      136.693834     2046.467437     1     0     0     0     6   1.560 0.274E+00 0.548E+00 0.000E+00
         8.988632      108.286100      307.568735    10     1     0     0     5   3.357 0.000E+00 0.000E+00 0.776E-01
       139.698075      159.703354      387.870412     8     0     0     0     6   3.120 0.274E-21 0.548E-21 0.155E-07
         6.634799       20.574716      319.401105    14     0     0     0     8   3.760 0.274E-39 0.548E-39 0.492E-13
       134.691756       73.108936      514.584422    20     0     0     0     1   4.230 0.274E-57 0.548E-57 0.240E-14
       195.199426      195.538805      152.875568    12     6     0     0     8   3.568 0.000E+00 0.000E+00 0.177E+01
       122.011297      186.061425       87.832890    10     6     0     0     4   3.357 0.000E+00 0.000E+00 0.184E+01
       151.021783      152.586119      294.513082     9     2     0     0     1   3.241 0.000E+00 0.000E+00 0.125E+00
        70.462996        1.567794      126.675654    12     8     0     0     5   3.568 0.000E+00 0.000E+00 0.241E+01
       113.170984      198.539347       75.422456    19     8     0     0     3   4.158 0.000E+00 0.000E+00 0.345E+00
        82.658531      117.489808      437.260206    13     1     0     0     8   3.664 0.000E+00 0.000E+00 0.446E-02
        50.462968      182.691284      871.456278    34     0     0     0     1   5.050 0.274E-99 0.548E-99 0.537E-16
       145.937555        1.583386      388.653396     6     1     0     0     3   2.832 0.000E+00 0.000E+00 0.778E-01
       150.327791       56.606494     1784.991833     1     0     0     0     5   1.560 0.274E+00 0.548E+00 0.000E+00
        38.052992      144.469370      277.458803    16     2     0     0     1   3.927 0.000E+00 0.000E+00 0.124E+00
       167.599592       13.913029      255.831142     7     4     0     0     5   2.981 0.000E+00 0.000E+00 0.216E+00
       142.025835       25.090515      831.189079    14     0     0     0     6   3.760 0.274E-39 0.548E-39 0.492E-13
        29.144327       51.612086      654.601244    14     0     0     0     4   3.760 0.274E-39 0.548E-39 0.492E-13
       185.653702       33.368032      162.772698     6     6     0     0     5   2.832 0.000E+00 0.000E+00 0.227E+01
       131.505441       75.667655     2051.733355     1     0     0     0     6   1.560 0.274E+00 0.548E+00 0.000E+00
        76.200416       95.303656      155.468000    12     5     0     0     8   3.568 0.000E+00 0.000E+00 0.150E+01
        33.575966      152.520030     1236.097031     1     0     0     0     1   1.560 0.274E+00 0.548E+00 0.000E+00
       147.011756      187.597028      659.470206    20     0     0     0     5   4.230 0.274E-57 0.548E-57 0.240E-14
       156.833165       82.166430      500.425169    12     0     0     0     3   3.570 0.274E-33 0.548E-33 0.209E-12
       192.681945       49.246727       64.439787    14     4     0     0     7   3.756 0.000E+00 0.000E+00 0.202E+00
       156.144721       56.550525      237.821346    10     6     0     0     6   3.357 0.000E+00 0.000E+00 0.184E+01
        98.301410      175.692389     1383.869775     1     0     0     0     8   1.560 0.274E+00 0.548E+00 0.000E+00
        76.507429      126.945405      222.564160    15     1     0     0     1   3.843 0.000E+00 0.000E+00 0.479E+00
       103.320290       45.503738      122.270463     8     6     0     0     5   3.117 0.000E+00 0.000E+00 0.320E+00
       180.928504       22.893776      498.095555    14     0     0     0     4   3.760 0.274E-39 0.548E-39 0.492E-13
        65.967448       49.346885      650.917390    21     0     0     0     6   4.300 0.274E-60 0.548E-60 0.163E-14
       163.899657       47.470992      252.619155     8     5     0     0     3   3.117 0.000E+00 0.000E+00 0.261E+00
       154.249216       49.176884     1456.403565     1     0     0     0     8   1.560 0.274E+00 0.548E+00 0.000E+00
       154.605792      154.540756     2108.902027     1     0     0     0     4   1.560 0.274E+00 0.548E+00 0.000E+00
        84.249420       51.644100      299.627423     8     0     0     0     6   3.120 0.274E-21 0.548E-21 0.155E-07
        63.453025      190.675142      304.142221    10     1     0     0     5   3.357 0.000E+00 0.000E+00 0.776E-01
        10.605582       84.411499      697.701822    15     0     0     0     3   3.840 0.274E-42 0.548E-42 0.265E-13
       184.077770      140.936398      585.808387    15     0     0     0     3   3.840 0.274E-42 0.548E-42 0.265E-13
       179.032896       56.825251     1696.148885     1     0     0     0     4   1.560 0.274E+00 0.548E+00 0.000E+00
       187.804135       88.098847      320.517775    12     3     0     0     7   3.568 0.000E+00 0.000E+00 0.165E+00
        91.102516       27.250869      230.658806     9     7     0     0     6   3.241 0.000E+00 0.000E+00 0.229E+01
       173.810202       48.367039     1100.551791     1     0     0     0     6   1.560 0.274E+00 0.548E+00 0.000E+00
        80.195313       28.451130      592.027274    19     0     0     0     8   4.160 0.274E-54 0.548E-54 0.361E-14
        80.422664      138.339351      756.990888    16     0     0     0     6   3.930 0.274E-45 0.548E-45 0.151E-13
       174.540021      182.971298      217.515010    10     4     0     0     7   3.357 0.000E+00 0.000E+00 0.206E+00
        58.105996       98.380489      274.114953    20     5     0     0     6   4.230 0.000E+00 0.000E+00 0.233E+00
       154.114390      184.525554       75.340852    13     7     0     0     5   3.664 0.000E+00 0.000E+00 0.328E+00
        79.880707      149.743571      424.642667    12     1     0     0     7   3.568 0.000E+00 0.000E+00 0.776E-01
       172.909563      124.022744      340.917032    13     0     0     0     1   3.660 0.274E-36 0.548E-36 0.973E-13
        79.525387      166.645840       31.563814     6     2     0     0     7   2.832 0.000E+00 0.000E+00 0.126E+00
       182.339901      169.537541      304.966291    15     0     0     0     6   3.840 0.274E-42 0.548E-42 0.265E-13
        27.935057      136.830448     1520.665139     1     0     0     0     8   1.560 0.274E+00 0.548E+00 0.000E+00
        48.709462       91.838067     2125.904757     1     0     0     0     1   1.560 0.274E+00 0.548E+00 0.000E+00
        65.273638       47.718646       48.153904    12     4     0     0     2   3.568 0.000E+00 0.000E+00 0.203E+00
         7.738446      148.012451     1286.542738     1     0     0     0     8   1.560 0.274E+00 0.548E+00 0.000E+00
        50.069320       34.033540     1781.548775     1     0     0     0     5   1.560 0.274E+00 0.548E+00 0.000E+00
        52.189601       96.775709      434.766350    15     0     0     0     1   3.840 0.274E-42 0.548E-42 0.265E-13
       104.619737       50.640686     1182.235992     1     0     0     0     3   1.560 0.274E+00 0.548E+00 0.000E+00
       106.199210      145.446176      375.731000    11     0     0     0     6   3.470 0.274E-30 0.548E-30 0.493E-12
       189.625262       48.658551       51.156701    14     4     0     0     8   3.756 0.000E+00 0.000E+00 0.202E+00
        33.229912      114.915526      166.901534    14     5     0     0     5   3.756 0.000E+00 0.000E+00 0.148E+01
       156.542273      150.372366      189.882206     9     7     0     0     5   3.241 0.000E+00 0.000E+00 0.229E+01
       107.280029       69.512174      796.301420    21     0     0     0     3   4.300 0.274E-60 0.548E-60 0.163E-14
       187.099156       25.839670      594.451228    18     0     0     0     5   4.080 0.274E-51 0.548E-51 0.561E-14
       124.471473       44.007639      202.775747    17     5     0     0     3   4.007 0.000E+00 0.000E+00 0.146E+01
       140.277058      119.318535      725.001754    24     0     0     0     7   4.500 0.274E-69 0.548E-69 0.595E-15
       183.058259      157.405006      921.293093    31     0     0     0     5   4.900 0.274E-90 0.548E-90 0.986E-16
       167.082795      130.484526      510.113699    10     0     0     0     1   3.360 0.274E-27 0.548E-27 0.130E-11
        61.523283       64.260821      107.500323    18    11     0     0     6   4.084 0.000E+00 0.000E+00 0.309E+01
        63.585400      127.145171      101.709727    11     8     0     0     3   3.466 0.000E+00 0.000E+00 0.250E+01
       101.224175      186.258487      221.090993    14     4     0     0     1   3.756 0.000E+00 0.000E+00 0.202E+00
        21.229908       51.873852     1814.949454     1     0     0     0     5   1.560 0.274E+00 0.548E+00 0.000E+00
       198.175322      128.462898       39.728176     8     6     0     0     4   3.117 0.000E+00 0.000E+00 0.320E+00
       137.206159      159.188233      820.382391    22     0     0     0     8   4.370 0.274E-63 0.548E-63 0.114E-14
        14.297527      191.558534      818.868754    16     0     0     0     4   3.930 0.274E-45 0.548E-45 0.151E-13
       186.506977       27.125986      560.284272    23     0     0     0     4   4.430 0.274E-66 0.548E-66 0.814E-15
       102.259066      137.264317      148.036978    12     6     0     0     3   3.568 0.000E+00 0.000E+00 0.177E+01
       155.472320      182.582328      629.701769    20     0     0     0     7   4.230 0.274E-57 0.548E-57 0.240E-14
       111.711104      144.736190       33.056811     6     7     0     0     3   2.832 0.000E+00 0.000E+00 0.297E+01
        77.208639       29.069034     1757.705128     1     0     0     0     2   1.560 0.274E+00 0.548E+00 0.000E+00
       106.579410      102.054590       59.121998     6     3     0     0     4   2.832 0.000E+00 0.000E+00 0.172E+00
        54.975127       27.033315       91.402026    14     4     0     0     4   3.756 0.000E+00 0.000E+00 0.202E+00
        37.499069       23.834685     1197.234356     1     0     0     0     7   1.560 0.274E+00 0.548E+00 0.000E+00
       104.256922      191.293224      419.995838    18     0     0     0     2   4.080 0.274E-51 0.548E-51 0.561E-14
         7.068869      105.832722       86.135320    13     9     0     0     8   3.664 0.000E+00 0.000E+00 0.273E+01
        79.136815      155.427669     1152.198929     1     0     0     0     8   1.560 0.274E+00 0.548E+00 0.000E+00
       134.742549      198.787342      189.410627    13     7     0     0     2   3.664 0.000E+00 0.000E+00 0.328E+00
       135.889848      113.949791     1617.536973     1     0     0     0     2   1.560 0.274E+00 0.548E+00 0.000E+00
        88.474965       34.211840      298.612400     9     3     0     0     5   3.241 0.000E+00 0.000E+00 0.167E+00
        63.514784        9.564383      426.956287     9     0     0     0     3   3.240 0.274E-24 0.548E-24 0.401E-11
       180.158755      191.942447      191.116486    14     5     0     0     5   3.756 0.000E+00 0.000E+00 0.148E+01
         3.383076        8.990276       94.711516    24     8     0     0     5   4.495 0.000E+00 0.000E+00 0.333E+00
        33.949085      189.655045      289.120468     6     1     0     0     2   2.832 0.000E+00 0.000E+00 0.778E-01
         2.470076        0.330357      180.536418     8     6     0     0     3   3.117 0.000E+00 0.000E+00 0.320E+00
       161.081565      158.453441      882.498888     1     0     0     0     4   1.560 0.274E+00 0.548E+00 0.000E+00
        93.070350       90.751212      911.882230    45     0     0     0     5   5.540 0.274-132 0.548-132 0.956E-17
       121.818578       42.282754      474.555443    11     0     0     0     8   3.470 0.274E-30 0.548E-30 0.493E-12
       194.970010      180.427665      386.196369    15     0     0     0     3   3.840 0.274E-42 0.548E-42 0.265E-13
        28.682362      100.261744       39.360714    18     6     0     0     1   4.084 0.000E+00 0.000E+00 0.271E+00
       100.498573       41.635112      149.637204     9     7     0     0     8   3.241 0.000E+00 0.000E+00 0.229E+01
       131.003527      135.578536      417.679856    15     0     0     0     4   3.840 0.274E-42 0.548E-42 0.265E-13
       126.144426      195.770530     1478.548168     1     0     0     0     5   1.560 0.274E+00 0.548E+00 0.000E+00
        33.819008      185.434281      627.026582    16     0     0     0     8   3.930 0.274E-45 0.548E-45 0.151E-13
       198.706249       28.854689      618.456514    26     0     0     0     2   4.620 0.274E-75 0.548E-75 0.333E-15
       169.600259      190.786053       58.845924     9     6     0     0     2   3.241 0.000E+00 0.000E+00 0.308E+00
        58.369825      178.232436       63.643941     9     7     0     0     7   3.241 0.000E+00 0.000E+00 0.229E+01
       163.979689      116.460209       47.705366    11     6     0     0     8   3.466 0.000E+00 0.000E+00 0.292E+00
       197.473397      165.572987      220.150275    13     8     0     0     4   3.664 0.000E+00 0.000E+00 0.234E+01
        63.090243        4.810164      365.906754    19     0     0     0     6   4.160 0.274E-54 0.548E-54 0.361E-14
       188.870500      184.239195      995.518770     1     0     0     0     3   1.560 0.274E+00 0.548E+00 0.000E+00
       174.330782       97.786779     1836.092084     1     0     0     0     8   1.560 0.274E+00 0.548E+00 0.000E+00
       174.794023      145.135793      574.364041     7     0     0     0     5   2.980 0.274E-18 0.548E-18 0.429E-06
        67.191807      164.156583     1271.669512     1     0     0     0     1   1.560 0.274E+00 0.548E+00 0.000E+00
        93.024411      139.894656      625.214478    18     0     0     0     3   4.080 0.274E-51 0.548E-51 0.561E-14
        72.878291        7.945426      166.329290    11     6     0     0     4   3.466 0.000E+00 0.000E+00 0.292E+00
        83.675030       86.362751      489.752464    17     0     0     0     5   4.010 0.274E-48 0.548E-48 0.902E-14
       166.500899       84.496367      769.340898    20     0     0     0     3   4.230 0.274E-57 0.548E-57 0.240E-14
       124.106070      177.467263      339.654389     7     2     0     0     1   2.981 0.000E+00 0.000E+00 0.125E+00
       159.374183      168.646667     1541.077005     1     0     0     0     3   1.560 0.274E+00 0.548E+00 0.000E+00
        38.248607      147.009478      208.335592    12     5     0     0     7   3.568 0.000E+00 0.000E+00 0.150E+01
        14.620965       42.030617       75.171912    17     6     0     0     1   4.007 0.000E+00 0.000E+00 0.169E+01
       167.800373      167.717694       27.241053    11     6     0     0     4   3.466 0.000E+00 0.000E+00 0.292E+00
        78.912266       17.473473      338.143712    13     1     0     0     2   3.664 0.000E+00 0.000E+00 0.446E-02
        74.651841       10.524273      640.671566    20     0     0     0     3   4.230 0.274E-57 0.548E-57 0.240E-14
       163.759382      194.260116      700.347634    26     0     0     0     8   4.620 0.274E-75 0.548E-75 0.333E-15
        72.935096      195.157005      282.490223     6     3     0     0     4   2.832 0.000E+00 0.000E+00 0.172E+00
        50.483664       55.314263      342.001508    11     1     0     0     2   3.466 0.000E+00 0.000E+00 0.776E-01
        86.620927      153.975224      121.417730    11     6     0     0     3   3.466 0.000E+00 0.000E+00 0.292E+00
        81.948468       71.784479      726.114061    13     0     0     0     2   3.660 0.274E-36 0.548E-36 0.973E-13
       189.274453      144.939571      795.019819    19     0     0     0     4   4.160 0.274E-54 0.548E-54 0.361E-14
        77.048260      155.468386      578.055124    14     0     0     0     8   3.760 0.274E-39 0.548E-39 0.492E-13
        58.040078      151.854133     1355.691128     1     0     0     0     3   1.560 0.274E+00 0.548E+00 0.000E+00
        37.796010      164.756819      163.573743    11     6     0     0     3   3.466 0.000E+00 0.000E+00 0.292E+00
       178.642297      131.002360      373.665615    11     0     0     0     7   3.470 0.274E-30 0.548E-30 0.493E-12
         9.968392      150.849465      389.379456    15     0     0     0     8   3.840 0.274E-42 0.548E-42 0.265E-13
        16.408336       67.761363     1717.015120     1     0     0     0     3   1.560 0.274E+00 0.548E+00 0.000E+00
       164.391834      112.520981     1126.269524     1     0     0     0     1   1.560 0.274E+00 0.548E+00 0.000E+00
        81.740453       40.801116      619.303770    11     0     0     0     7   3.470 0.274E-30 0.548E-30 0.493E-12
       118.313144      104.423288      852.467424    32     0     0     0     1   4.950 0.274E-93 0.548E-93 0.798E-16
       122.726659       38.649775      783.797179    24     0     0     0     8   4.500 0.274E-69 0.548E-69 0.595E-15
        87.302005      152.429467       92.463803    11     6     0     0     5   3.466 0.000E+00 0.000E+00 0.292E+00
       126.635138       70.994907       58.804537    13     8     0     0     3   3.664 0.000E+00 0.000E+00 0.234E+01
       188.094322      187.147119      428.851439     8     0     0     0     8   3.120 0.274E-21 0.548E-21 0.155E-07
        55.671992       16.592153     1282.210261     1     0     0     0     3   1.560 0.274E+00 0.548E+00 0.000E+00
        65.621377       24.972025      913.353680     1     0     0     0     5   1.560 0.274E+00 0.548E+00 0.000E+00
       116.469202       70.550058      668.714295    10     0     0     0     8   3.360 0.274E-27 0.548E-27 0.130E-11
        20.240241      165.908759       62.109052    12     4     0     0     7   3.568 0.000E+00 0.000E+00 0.203E+00
        59.942700       23.938973      303.833771    18     1     0     0     2   4.084 0.000E+00 0.000E+00 0.775E-01
        76.931506      118.525874      682.106061    20     0     0     0     6   4.230 0.274E-57 0.548E-57 0.240E-14
       121.739492      112.177255     2077.166484     1     0     0     0     7   1.560 0.274E+00 0.548E+00 0.000E+00
       146.028746       27.470077      281.148170     7     1     0     0     2   2.981 0.000E+00 0.000E+00 0.778E-01
        79.984214      168.032188     1222.619565     1     0     0     0     8   1.560 0.274E+00 0.548E+00 0.000E+00
       149.523570       24.503941      234.071743    10     4     0     0     8   3.357 0.000E+00 0.000E+00 0.206E+00
        37.395648       99.975636      587.599734    12     0     0     0     3   3.570 0.274E-33 0.548E-33 0.209E-12
       197.761662       40.110975     1433.272879     1     0     0     0     5   1.560 0.274E+00 0.548E+00 0.000E+00
       110.532367      164.015391       40.731932     7     5     0     0     1   2.981 0.000E+00 0.000E+00 0.167E+01
       183.296259       97.243651     1347.200244     1     0     0     0     7   1.560 0.274E+00 0.548E+00 0.000E+00
        13.844866       53.071363       10.988686     8     1     0     0     8   3.117 0.000E+00 0.000E+00 0.776E-01
       118.167413      169.709737      691.073765    24     0     0     0     2   4.500 0.274E-69 0.548E-69 0.595E-15
       157.066830       30.971370      286.115563    11     2     0     0     6   3.466 0.000E+00 0.000E+00 0.124E+00
       199.498014      176.036191      779.627938    12     0     0     0     6   3.570 0.274E-33 0.548E-33 0.209E-12
       191.647004      106.957208       41.023411    14     8     0     0     2   3.756 0.000E+00 0.000E+00 0.229E+01
       122.847730      134.822810       83.015571    11     5     0     0     8   3.466 0.000E+00 0.000E+00 0.246E+00
       195.175145       78.858377       17.046681     9     5     0     0     7   3.241 0.000E+00 0.000E+00 0.254E+00
       158.490659       90.083933     1865.031986     1     0     0     0     5   1.560 0.274E+00 0.548E+00 0.000E+00