ITEM: TIMESTEP
0
ITEM: NUMBER OF ATOMS
         523
ITEM: BOX BOUNDS pp pp pp
  0.0000000E+00   200.000000000000     
  0.0000000E+00   200.000000000000     
  0.0000000E+00   5000.00000000000     
ITEM: ATOMS x y z f1 f2 f3 f4 orient radius rate_mig rate_rot rate_emit
        58.487605      198.702774      218.865639    11     7     0     0     6   3.466 0.000E+00 0.000E+00 0.342E+01
       197.314632       79.041790      128.483059     7     5     0     0     7   2.981 0.000E+00 0.000E+00 0.269E+01
        39.553546       58.691464      282.306919     9     6     0     0     6   3.241 0.000E+00 0.000E+00 0.509E+00
        37.118441       91.019004     2039.487493     1     0     0     0     5   1.560 0.429E+00 0.858E+00 0.000E+00
        59.942700       23.938973      303.833771    18     1     0     0     1   4.084 0.000E+00 0.000E+00 0.129E+00
       197.204266       37.593889      237.783320     8     5     0     0     7   3.117 0.000E+00 0.000E+00 0.432E+00
        53.686581       88.143623      695.932070    19     0     0     0     2   4.160 0.429E-54 0.858E-54 0.947E-14
       197.666948       80.736528      489.120152    16     0     0     0     5   3.930 0.429E-45 0.858E-45 0.388E-13
        44.320441       51.839916      773.015850    24     0     0     0     3   4.500 0.429E-69 0.858E-69 0.161E-14
       173.919202      110.405202      116.268054    12     8     0     0     1   3.568 0.000E+00 0.000E+00 0.388E+01
       187.985005       49.341780     1673.455946     1     0     0     0     2   1.560 0.429E+00 0.858E+00 0.000E+00
       106.579410      102.054590       59.121998     6     4     0     0     7   2.832 0.000E+00 0.000E+00 0.368E+00
        65.273638       47.718646       48.153904    12     4     0     0     3   3.568 0.000E+00 0.000E+00 0.337E+00
       185.426611       31.295317      486.032669    18     0     0     0     2   4.080 0.429E-51 0.858E-51 0.146E-13
       116.105942        4.551717      458.572817     9     0     0     0     8   3.240 0.429E-24 0.858E-24 0.942E-11
        79.016203        3.171207      685.268528    21     0     0     0     1   4.300 0.429E-60 0.858E-60 0.433E-14
        58.105996       98.380489      274.114953    20     3     0     0     2   4.230 0.000E+00 0.000E+00 0.270E+00
       146.028746       27.470077      281.148170     7     1     0     0     3   2.981 0.000E+00 0.000E+00 0.129E+00
        41.670049      135.521682     1418.231304     1     0     0     0     2   1.560 0.429E+00 0.858E+00 0.000E+00
       144.341793      127.742978      244.927566     9     7     0     0     2   3.241 0.000E+00 0.000E+00 0.369E+01
        71.698428       55.345923     1259.383003     1     0     0     0     2   1.560 0.429E+00 0.858E+00 0.000E+00
        91.555690      168.567916       66.232380    16     3     0     0     4   3.927 0.000E+00 0.000E+00 0.163E+01
        33.652471      128.282407      806.545984    26     0     0     0     5   4.620 0.429E-75 0.858E-75 0.908E-15
       120.987692       93.228463      419.160634    12     0     0     0     6   3.570 0.429E-33 0.858E-33 0.516E-12
       154.114390      184.525554       75.340852    13     7     0     0     6   3.664 0.000E+00 0.000E+00 0.544E+00
        69.915281       31.162092      407.321537    11     1     0     0     6   3.466 0.000E+00 0.000E+00 0.129E+00
       105.412705      181.900153      465.141268    20     0     0     0     6   4.230 0.429E-57 0.858E-57 0.634E-14
        99.929045       96.495586     1138.174515     1     0     0     0     4   1.560 0.429E+00 0.858E+00 0.000E+00
        68.140316       96.161527     1542.018033     1     0     0     0     6   1.560 0.429E+00 0.858E+00 0.000E+00
       162.106260       26.007547      264.802995    12     3     0     0     6   3.568 0.000E+00 0.000E+00 0.273E+00
         2.862109      118.480941      758.360725    18     0     0     0     3   4.080 0.429E-51 0.858E-51 0.146E-13
       141.897536       63.343014      565.356000    13     0     0     0     8   3.660 0.429E-36 0.858E-36 0.242E-12
        32.192202      118.320390      682.922112    13     0     0     0     5   3.660 0.429E-36 0.858E-36 0.242E-12
       120.531350       69.535966      495.664905     9     0     0     0     2   3.240 0.429E-24 0.858E-24 0.942E-11
        29.151122        2.868140      960.446513    25     0     0     0     2   4.560 0.429E-72 0.858E-72 0.119E-14
       192.165730      135.997317      620.823106    22     0     0     0     7   4.370 0.429E-63 0.858E-63 0.305E-14
        15.647586      133.934744      233.294877    17     6     0     0     1   4.007 0.000E+00 0.000E+00 0.272E+01
       190.057350      136.028364     1377.211893     1     0     0     0     8   1.560 0.429E+00 0.858E+00 0.000E+00
       125.251883       48.286411      660.119129    27     0     0     0     1   4.680 0.429E-78 0.858E-78 0.696E-15
       163.398537       97.397047       98.862200     8     6     0     0     2   3.117 0.000E+00 0.000E+00 0.529E+00
       181.102385       59.188431     1836.435263     1     0     0     0     6   1.560 0.429E+00 0.858E+00 0.000E+00
       183.092446      184.634195     1093.385041     1     0     0     0     2   1.560 0.429E+00 0.858E+00 0.000E+00
       118.971310       49.108488      360.588579    12     1     0     0     1   3.568 0.000E+00 0.000E+00 0.129E+00
        63.585400      127.145171      101.709727    11     7     0     0     2   3.466 0.000E+00 0.000E+00 0.342E+01
        83.069466       91.154192      385.800169    10     0     0     0     3   3.360 0.429E-27 0.858E-27 0.311E-11
        84.776346       17.674247      857.278091    24     0     0     0     5   4.500 0.429E-69 0.858E-69 0.161E-14
       120.053956       52.522876      703.534843    22     0     0     0     8   4.370 0.429E-63 0.858E-63 0.305E-14
       193.729080       76.270517      375.330694     8     1     0     0     4   3.117 0.000E+00 0.000E+00 0.129E+00
        28.682362      100.261744       39.360714    18     6     0     0     8   4.084 0.000E+00 0.000E+00 0.449E+00
       150.734745       44.339680      539.575542    12     0     0     0     3   3.570 0.429E-33 0.858E-33 0.516E-12
       101.677189       32.372283     1532.601535     1     0     0     0     6   1.560 0.429E+00 0.858E+00 0.000E+00
        11.897631       96.102907      270.102150    14     4     0     0     8   3.756 0.000E+00 0.000E+00 0.334E+00
        53.647173      107.492386      400.707070    11     0     0     0     7   3.470 0.429E-30 0.858E-30 0.120E-11
       111.948107      120.652613     1010.522803     1     0     0     0     5   1.560 0.429E+00 0.858E+00 0.000E+00
         4.254788      135.226066      559.526675    19     0     0     0     4   4.160 0.429E-54 0.858E-54 0.947E-14
        76.230508      149.699902      269.608101    25     7     0     0     2   4.557 0.000E+00 0.000E+00 0.494E+00
        85.048966       55.698511      337.603253    10     0     0     0     1   3.360 0.429E-27 0.858E-27 0.311E-11
       132.145149       38.579207       49.018579    16     2     0     0     6   3.927 0.000E+00 0.000E+00 0.205E+00
       126.635138       70.994907       58.804537    13     7     0     0     2   3.664 0.000E+00 0.000E+00 0.544E+00
       130.363798        4.167890      380.887033     9     1     0     0     2   3.241 0.000E+00 0.000E+00 0.129E+00
       162.504689       75.600692     1151.881360     1     0     0     0     1   1.560 0.429E+00 0.858E+00 0.000E+00
        77.321833      149.754412     1192.573843     1     0     0     0     4   1.560 0.429E+00 0.858E+00 0.000E+00
       138.248213       95.792369      529.222476    14     0     0     0     3   3.760 0.429E-39 0.858E-39 0.124E-12
       101.630774      133.600193      274.102567    11     5     0     0     4   3.466 0.000E+00 0.000E+00 0.408E+00
       140.998689       86.963348      101.502835     7     3     0     0     5   2.981 0.000E+00 0.000E+00 0.281E+00
       116.093904       28.390559       28.726266     9     4     0     0     1   3.241 0.000E+00 0.000E+00 0.346E+00
       113.626918       27.101599     1149.861879     1     0     0     0     6   1.560 0.429E+00 0.858E+00 0.000E+00
        79.525387      166.645840       31.563814     6     1     0     0     3   2.832 0.000E+00 0.000E+00 0.129E+00
        15.281686       33.482327     1357.129700     1     0     0     0     2   1.560 0.429E+00 0.858E+00 0.000E+00
       137.376661      191.591577     1037.341946    41     0     0     0     2   5.370 0.429-120 0.858-120 0.474E-16
       137.388064       42.145909      116.539994     9     7     0     0     1   3.241 0.000E+00 0.000E+00 0.369E+01
        45.405229        4.051582      284.065301     6     1     0     0     1   2.832 0.000E+00 0.000E+00 0.129E+00
         9.034998       29.961261      372.519227    12     0     0     0     8   3.570 0.429E-33 0.858E-33 0.516E-12
       174.554900      170.088326     1901.293352     1     0     0     0     3   1.560 0.429E+00 0.858E+00 0.000E+00
       158.292624       78.586338      415.084022    19     0     0     0     3   4.160 0.429E-54 0.858E-54 0.947E-14
       156.290046       89.501436       64.003936    10     5     0     0     4   3.357 0.000E+00 0.000E+00 0.249E+01
         6.634799       20.574716      319.401105    14     1     0     0     8   3.756 0.000E+00 0.000E+00 0.129E+00
       142.663830      129.976017      590.271989    23     0     0     0     1   4.430 0.429E-66 0.858E-66 0.219E-14
       164.858050      102.896861     1429.709384     1     0     0     0     5   1.560 0.429E+00 0.858E+00 0.000E+00
       136.157686      115.145489      382.870616     6     0     0     0     6   2.830 0.429E-15 0.858E-15 0.220E-07
        69.193054       11.089508      204.626131    19    12     0     0     8   4.158 0.000E+00 0.000E+00 0.543E+01
       133.094852       38.309642     1637.206272     1     0     0     0     1   1.560 0.429E+00 0.858E+00 0.000E+00
        17.780647      113.031417     2060.365392     1     0     0     0     6   1.560 0.429E+00 0.858E+00 0.000E+00
       191.647004      106.957208       41.023411    14     4     0     0     5   3.756 0.000E+00 0.000E+00 0.334E+00
       158.733123      142.426843       92.670934     9     7     0     0     7   3.241 0.000E+00 0.000E+00 0.369E+01
        57.483120       95.859722       70.969911    10     5     0     0     1   3.357 0.000E+00 0.000E+00 0.249E+01
        63.582698      127.198385     2049.632587     1     0     0     0     2   1.560 0.429E+00 0.858E+00 0.000E+00
       129.655182       26.490380      103.759805    10     4     0     0     2   3.357 0.000E+00 0.000E+00 0.342E+00
       139.698075      159.703354      387.870412     8     0     0     0     6   3.120 0.429E-21 0.858E-21 0.322E-07
       172.303838      117.543909      242.596405     8     2     0     0     1   3.117 0.000E+00 0.000E+00 0.207E+00
       134.691756       73.108936      514.584422    20     0     0     0     1   4.230 0.429E-57 0.858E-57 0.634E-14
       148.646724       11.381769      118.995798    10     3     0     0     1   3.357 0.000E+00 0.000E+00 0.275E+00
        13.844866       53.071363       10.988686     8     1     0     0     4   3.117 0.000E+00 0.000E+00 0.129E+00
       154.719971       93.712585       72.348555     6     3     0     0     1   2.832 0.000E+00 0.000E+00 0.285E+00
       175.505253      198.001789      114.025482    12     4     0     0     7   3.568 0.000E+00 0.000E+00 0.337E+00
        18.077024       95.755857      327.978975    17     3     0     0     3   4.007 0.000E+00 0.000E+00 0.271E+00
        82.658531      117.489808      437.260206    13     1     0     0     8   3.664 0.000E+00 0.000E+00 0.773E-02
        50.462968      182.691284      871.456278    34     0     0     0     1   5.050 0.429E-99 0.858E-99 0.151E-15
        32.823934       23.032189      293.747106     7     3     0     0     2   2.981 0.000E+00 0.000E+00 0.281E+00
       150.327791       56.606494     1784.991833     1     0     0     0     5   1.560 0.429E+00 0.858E+00 0.000E+00
       122.011297      186.061425       87.832890    10     1     0     0     2   3.357 0.000E+00 0.000E+00 0.129E+00
       104.231474      128.312817       47.057942    11     4     0     0     8   3.466 0.000E+00 0.000E+00 0.340E+00
       142.025835       25.090515      831.189079    14     0     0     0     6   3.760 0.429E-39 0.858E-39 0.124E-12
        29.144327       51.612086      654.601244    14     0     0     0     4   3.760 0.429E-39 0.858E-39 0.124E-12
        22.258180       97.809548      340.450692    13     1     0     0     2   3.664 0.000E+00 0.000E+00 0.773E-02
       133.088015       74.085080     2040.655331     1     0     0     0     7   1.560 0.429E+00 0.858E+00 0.000E+00
       184.491451      157.138314      320.519125    12     2     0     0     4   3.568 0.000E+00 0.000E+00 0.206E+00
        33.575966      158.850329     1236.097031     1     0     0     0     8   1.560 0.429E+00 0.858E+00 0.000E+00
       147.011756      187.597028      659.470206    20     0     0     0     5   4.230 0.429E-57 0.858E-57 0.634E-14
       156.833165       82.166430      500.425169    12     0     0     0     3   3.570 0.429E-33 0.858E-33 0.516E-12
       192.681945       49.246727       64.439787    14     5     0     0     5   3.756 0.000E+00 0.000E+00 0.239E+01
       170.898369      163.056464      297.043522    11     2     0     0     5   3.466 0.000E+00 0.000E+00 0.206E+00
        96.718835      180.440113     1388.617499     1     0     0     0     7   1.560 0.429E+00 0.858E+00 0.000E+00
        72.935096      195.157005      282.490223     6     2     0     0     5   2.832 0.000E+00 0.000E+00 0.209E+00
        17.214158      161.105156      239.248219    10     4     0     0     4   3.357 0.000E+00 0.000E+00 0.342E+00
       180.928504       22.893776      498.095555    14     0     0     0     4   3.760 0.429E-39 0.858E-39 0.124E-12
        65.967448       49.346885      650.917390    21     0     0     0     6   4.300 0.429E-60 0.858E-60 0.433E-14
       198.013995      115.722236      265.876575    14     4     0     0     6   3.756 0.000E+00 0.000E+00 0.334E+00
       146.336341       50.759459     1457.986140     1     0     0     0     2   1.560 0.429E+00 0.858E+00 0.000E+00
       151.440643      148.210456     2108.902027     1     0     0     0     3   1.560 0.429E+00 0.858E+00 0.000E+00
       185.519586       83.619158       99.297485    12     4     0     0     1   3.568 0.000E+00 0.000E+00 0.337E+00
        63.453025      190.675142      304.142221    10     1     0     0     5   3.357 0.000E+00 0.000E+00 0.129E+00
        10.605582       84.411499      697.701822    15     0     0     0     3   3.840 0.429E-42 0.858E-42 0.673E-13
       184.077770      140.936398      585.808387    15     0     0     0     3   3.840 0.429E-42 0.858E-42 0.673E-13
       175.867747       56.825251     1705.644333     1     0     0     0     7   1.560 0.429E+00 0.858E+00 0.000E+00
       187.804135       88.098847      320.517775    12     4     0     0     6   3.568 0.000E+00 0.000E+00 0.337E+00
        53.338135      166.090188      341.611804     6     2     0     0     6   2.832 0.000E+00 0.000E+00 0.209E+00
       176.975352       48.367039     1103.716941     1     0     0     0     7   1.560 0.429E+00 0.858E+00 0.000E+00
        80.195313       28.451130      592.027274    19     0     0     0     8   4.160 0.429E-54 0.858E-54 0.947E-14
        80.422664      138.339351      756.990888    16     0     0     0     6   3.930 0.429E-45 0.858E-45 0.388E-13
       148.202653      198.443104       84.509234    12     5     0     0     7   3.568 0.000E+00 0.000E+00 0.242E+01
        38.052992      144.469370      277.458803    16     0     0     0     3   3.930 0.429E-45 0.858E-45 0.388E-13
        72.660095      132.359960      253.137131     7     6     0     0     8   2.981 0.000E+00 0.000E+00 0.336E+01
        79.880707      149.743571      424.642667    12     1     0     0     7   3.568 0.000E+00 0.000E+00 0.129E+00
       172.909563      124.022744      340.917032    13     0     0     0     1   3.660 0.429E-36 0.858E-36 0.242E-12
       151.642140      137.794290      276.918627     6     2     0     0     3   2.832 0.000E+00 0.000E+00 0.209E+00
       151.021783      152.586119      294.513082     9     3     0     0     2   3.241 0.000E+00 0.000E+00 0.276E+00
        16.857033      132.082724     1528.578013     1     0     0     0     7   1.560 0.429E+00 0.858E+00 0.000E+00
        47.126887       80.760044     2133.817631     1     0     0     0     3   1.560 0.429E+00 0.858E+00 0.000E+00
        78.948477      186.130533      270.538431     9     6     0     0     3   3.241 0.000E+00 0.000E+00 0.509E+00
         6.155871      155.925325     1272.299565     1     0     0     0     4   1.560 0.429E+00 0.858E+00 0.000E+00
        53.234470       24.538091     1784.713925     1     0     0     0     3   1.560 0.429E+00 0.858E+00 0.000E+00
        52.189601       96.775709      434.766350    15     0     0     0     1   3.840 0.429E-42 0.858E-42 0.673E-13
       106.202312       55.388411     1180.653417     1     0     0     0     8   1.560 0.429E+00 0.858E+00 0.000E+00
       106.199210      145.446176      375.731000    11     0     0     0     6   3.470 0.429E-30 0.858E-30 0.120E-11
        33.229912      114.915526      166.901534    14     4     0     0     6   3.756 0.000E+00 0.000E+00 0.334E+00
        60.288187      192.398045      293.248906     7     3     0     0     5   2.981 0.000E+00 0.000E+00 0.281E+00
       195.199426      195.538805      152.875568    12     5     0     0     1   3.568 0.000E+00 0.000E+00 0.242E+01
       107.280029       69.512174      796.301420    21     0     0     0     3   4.300 0.429E-60 0.858E-60 0.433E-14
       187.099156       25.839670      594.451228    18     0     0     0     5   4.080 0.429E-51 0.858E-51 0.146E-13
        91.102516       27.250869      230.658806     9     6     0     0     2   3.241 0.000E+00 0.000E+00 0.509E+00
       140.277058      119.318535      725.001754    24     0     0     0     7   4.500 0.429E-69 0.858E-69 0.161E-14
       183.058259      157.405006      921.293093    31     0     0     0     5   4.900 0.429E-90 0.858E-90 0.274E-15
       167.082795      130.484526      510.113699    10     0     0     0     1   3.360 0.429E-27 0.858E-27 0.311E-11
        64.169159       44.376127       27.088228    12     4     0     0     7   3.568 0.000E+00 0.000E+00 0.337E+00
       189.625262       48.658551       51.156701    14     4     0     0     6   3.756 0.000E+00 0.000E+00 0.334E+00
        53.163309      111.314124       89.989475     9     6     0     0     8   3.241 0.000E+00 0.000E+00 0.509E+00
        29.142782       47.126128     1822.862328     1     0     0     0     5   1.560 0.429E+00 0.858E+00 0.000E+00
       124.121270       61.993981      212.204042    14     7     0     0     8   3.756 0.000E+00 0.000E+00 0.321E+01
       137.206159      159.188233      820.382391    22     0     0     0     8   4.370 0.429E-63 0.858E-63 0.305E-14
        14.297527      191.558534      818.868754    16     0     0     0     4   3.930 0.429E-45 0.858E-45 0.388E-13
       186.506977       27.125986      560.284272    23     0     0     0     4   4.430 0.429E-66 0.858E-66 0.219E-14
        83.578519      100.506524      290.298083    11     2     0     0     7   3.466 0.000E+00 0.000E+00 0.206E+00
       155.472320      182.582328      629.701769    20     0     0     0     7   4.230 0.429E-57 0.858E-57 0.634E-14
         3.756312      113.994514      366.505533     9     0     0     0     5   3.240 0.429E-24 0.858E-24 0.942E-11
        75.626064       27.486459     1768.783152     1     0     0     0     6   1.560 0.429E+00 0.858E+00 0.000E+00
        91.242323      103.185768      131.290292    10     4     0     0     3   3.357 0.000E+00 0.000E+00 0.342E+00
        20.240241      165.908759       62.109052    12     5     0     0     3   3.568 0.000E+00 0.000E+00 0.242E+01
        35.916494       28.582410     1201.982081     1     0     0     0     2   1.560 0.429E+00 0.858E+00 0.000E+00
       104.256922      191.293224      419.995838    18     0     0     0     2   4.080 0.429E-51 0.858E-51 0.146E-13
        78.005218      183.157072      213.472464     5     2     0     0     4   2.665 0.000E+00 0.000E+00 0.211E+00
        85.467114      155.427669     1149.033780     1     0     0     0     8   1.560 0.429E+00 0.858E+00 0.000E+00
        19.254229       79.038506      189.797689    18     9     0     0     7   4.084 0.000E+00 0.000E+00 0.392E+01
       139.054998      126.610389     1630.197571     1     0     0     0     3   1.560 0.429E+00 0.858E+00 0.000E+00
       124.471473       44.007639      202.775747    17     3     0     0     2   4.007 0.000E+00 0.000E+00 0.271E+00
        63.514784        9.564383      426.956287     9     0     0     0     3   3.240 0.429E-24 0.858E-24 0.942E-11
        99.749110      169.042280      201.817924    13     7     0     0     2   3.664 0.000E+00 0.000E+00 0.544E+00
        12.959783      160.492750       94.339551     8     6     0     0     5   3.117 0.000E+00 0.000E+00 0.529E+00
       138.212247      126.531508      307.138694    17     0     0     0     2   4.010 0.429E-48 0.858E-48 0.233E-13
       178.167335      159.217288       40.589806     7     3     0     0     2   2.981 0.000E+00 0.000E+00 0.281E+00
       161.081565      155.288292      888.829187     1     0     0     0     1   1.560 0.429E+00 0.858E+00 0.000E+00
        93.070350       90.751212      911.882230    45     0     0     0     5   5.540 0.429-132 0.858-132 0.276E-16
       121.818578       42.282754      474.555443    11     0     0     0     8   3.470 0.429E-30 0.858E-30 0.120E-11
       194.970010      180.427665      386.196369    15     0     0     0     3   3.840 0.429E-42 0.858E-42 0.673E-13
        59.843688      135.981897       32.455549     6     3     0     0     4   2.832 0.000E+00 0.000E+00 0.285E+00
       169.600259      190.786053       58.845924     9     6     0     0     1   3.241 0.000E+00 0.000E+00 0.509E+00
       131.003527      135.578536      417.679856    15     0     0     0     4   3.840 0.429E-42 0.858E-42 0.673E-13
       129.309575      195.770530     1484.878468     1     0     0     0     6   1.560 0.429E+00 0.858E+00 0.000E+00
        33.819008      185.434281      627.026582    16     0     0     0     8   3.930 0.429E-45 0.858E-45 0.388E-13
       198.706249       28.854689      618.456514    26     0     0     0     2   4.620 0.429E-75 0.858E-75 0.908E-15
       194.953378       31.553957      120.838931    11     7     0     0     8   3.466 0.000E+00 0.000E+00 0.342E+01
        88.474965       34.211840      298.612400     9     6     0     0     6   3.241 0.000E+00 0.000E+00 0.509E+00
       144.497725       61.239522      321.732739    16     1     0     0     5   3.927 0.000E+00 0.000E+00 0.129E+00
       122.167492       39.868017      135.847786    16     3     0     0     3   3.927 0.000E+00 0.000E+00 0.163E+01
        27.083587       16.609617      372.239203     9     0     0     0     8   3.240 0.429E-24 0.858E-24 0.942E-11
       192.035650      190.569495      995.518770     1     0     0     0     1   1.560 0.429E+00 0.858E+00 0.000E+00
       175.913357      102.534503     1831.344359     1     0     0     0     4   1.560 0.429E+00 0.858E+00 0.000E+00
       174.794023      145.135793      574.364041     7     0     0     0     5   2.980 0.429E-18 0.858E-18 0.846E-06
        68.774381      165.739158     1276.417236     1     0     0     0     3   1.560 0.429E+00 0.858E+00 0.000E+00
        93.024411      139.894656      625.214478    18     0     0     0     3   4.080 0.429E-51 0.858E-51 0.146E-13
        86.620927      153.975224      121.417730    11     5     0     0     6   3.466 0.000E+00 0.000E+00 0.408E+00
        83.675030       86.362751      489.752464    17     0     0     0     5   4.010 0.429E-48 0.858E-48 0.233E-13
       166.500899       84.496367      769.340898    20     0     0     0     3   4.230 0.429E-57 0.858E-57 0.634E-14
       156.144721       56.550525      237.821346    10     4     0     0     4   3.357 0.000E+00 0.000E+00 0.342E+00
       159.374183      178.142116     1531.581556     1     0     0     0     3   1.560 0.429E+00 0.858E+00 0.000E+00
       167.800373      167.717694       27.241053    11     3     0     0     6   3.466 0.000E+00 0.000E+00 0.274E+00
       126.138569       54.533245      341.234920    10     1     0     0     5   3.357 0.000E+00 0.000E+00 0.129E+00
       119.343147       98.027318       54.225113     9     6     0     0     3   3.241 0.000E+00 0.000E+00 0.509E+00
        78.912266       17.473473      338.143712    13     1     0     0     2   3.664 0.000E+00 0.000E+00 0.773E-02
        74.651841       10.524273      640.671566    20     0     0     0     3   4.230 0.429E-57 0.858E-57 0.634E-14
       163.759382      194.260116      700.347634    26     0     0     0     8   4.620 0.429E-75 0.858E-75 0.908E-15
       117.318408      117.789184      106.004935    11     6     0     0     4   3.466 0.000E+00 0.000E+00 0.483E+00
       112.332052      124.486857      289.435989    12     2     0     0     1   3.568 0.000E+00 0.000E+00 0.206E+00
       182.023309       37.186968      230.353054     6     5     0     0     5   2.832 0.000E+00 0.000E+00 0.283E+01
        81.948468       71.784479      726.114061    13     0     0     0     2   3.660 0.429E-36 0.858E-36 0.242E-12
       189.274453      144.939571      795.019819    19     0     0     0     4   4.160 0.429E-54 0.858E-54 0.947E-14
        77.048260      155.468386      578.055124    14     0     0     0     8   3.760 0.429E-39 0.858E-39 0.124E-12
        45.379479      151.854133     1362.021428     1     0     0     0     3   1.560 0.429E+00 0.858E+00 0.000E+00
       153.394634      110.882309      235.431680     9     4     0     0     4   3.241 0.000E+00 0.000E+00 0.346E+00
        24.031469       58.631028      387.606556     9     0     0     0     4   3.240 0.429E-24 0.858E-24 0.942E-11
         9.968392      150.849465      389.379456    15     0     0     0     8   3.840 0.429E-42 0.858E-42 0.673E-13
        22.738636       74.091662     1713.849971     1     0     0     0     8   1.560 0.429E+00 0.858E+00 0.000E+00
       167.556984      118.851281     1129.434673     1     0     0     0     1   1.560 0.429E+00 0.858E+00 0.000E+00
        81.740453       40.801116      619.303770    11     0     0     0     7   3.470 0.429E-30 0.858E-30 0.120E-11
       118.313144      104.423288      852.467424    32     0     0     0     1   4.950 0.429E-93 0.858E-93 0.222E-15
       122.726659       38.649775      783.797179    24     0     0     0     8   4.500 0.429E-69 0.858E-69 0.161E-14
       195.731233       36.403965      129.665418     8     6     0     0     4   3.117 0.000E+00 0.000E+00 0.529E+00
        50.483664       55.314263      342.001508    11     2     0     0     1   3.466 0.000E+00 0.000E+00 0.206E+00
       188.094322      187.147119      428.851439     8     0     0     0     8   3.120 0.429E-21 0.858E-21 0.322E-07
        44.593968       15.009579     1283.792835     1     0     0     0     6   1.560 0.429E+00 0.858E+00 0.000E+00
        68.786527       18.641726      913.353680     1     0     0     0     5   1.560 0.429E+00 0.858E+00 0.000E+00
       116.469202       70.550058      668.714295    10     0     0     0     8   3.360 0.429E-27 0.858E-27 0.311E-11
        85.775693       80.531238      160.166091     9     6     0     0     5   3.241 0.000E+00 0.000E+00 0.509E+00
        92.433881      170.491461      138.245294    13     7     0     0     6   3.664 0.000E+00 0.000E+00 0.544E+00
        76.931506      118.525874      682.106061    20     0     0     0     6   4.230 0.429E-57 0.858E-57 0.634E-14
       120.156917      101.099231     2069.253610     1     0     0     0     6   1.560 0.429E+00 0.858E+00 0.000E+00
       194.942997       13.842474        8.725081     5     1     0     0     5   2.665 0.000E+00 0.000E+00 0.129E+00
        75.236489      169.614763     1221.036990     1     0     0     0     8   1.560 0.429E+00 0.858E+00 0.000E+00
        71.443769       11.340619      150.218700     7     2     0     0     3   2.981 0.000E+00 0.000E+00 0.208E+00
        37.395648       99.975636      587.599734    12     0     0     0     3   3.570 0.429E-33 0.858E-33 0.516E-12
       197.761662       33.780676     1430.107729     1     0     0     0     5   1.560 0.429E+00 0.858E+00 0.000E+00
         3.383076        8.990276       94.711516    24     9     0     0     2   4.495 0.000E+00 0.000E+00 0.615E+00
       189.626558      100.408801     1347.200244     1     0     0     0     5   1.560 0.429E+00 0.858E+00 0.000E+00
        43.644571      116.036595      124.681332    13     7     0     0     1   3.664 0.000E+00 0.000E+00 0.544E+00
       118.167413      169.709737      691.073765    24     0     0     0     2   4.500 0.429E-69 0.858E-69 0.161E-14
        74.953408       16.705855      123.657347     8     6     0     0     7   3.117 0.000E+00 0.000E+00 0.529E+00
       199.498014      176.036191      779.627938    12     0     0     0     6   3.570 0.429E-33 0.858E-33 0.516E-12
       121.858180       90.852696       31.862258     9     4     0     0     4   3.241 0.000E+00 0.000E+00 0.346E+00
        98.237489        4.501858      325.001990     8     1     0     0     6   3.117 0.000E+00 0.000E+00 0.129E+00
        94.866926        2.365819       19.328712     4     1     0     0     8   2.474 0.000E+00 0.000E+00 0.130E+00
       160.073234       91.666508     1860.284261     1     0     0     0     5   1.560 0.429E+00 0.858E+00 0.000E+00