ITEM: TIMESTEP
0
ITEM: NUMBER OF ATOMS
         523
ITEM: BOX BOUNDS pp pp pp
  0.0000000E+00   200.000000000000     
  0.0000000E+00   200.000000000000     
  0.0000000E+00   5000.00000000000     
ITEM: ATOMS x y z f1 f2 f3 f4 orient radius rate_mig rate_rot rate_emit
       168.245356      125.321838       79.504564     9     4     0     0     4   3.241 0.000E+00 0.000E+00 0.565E+00
        76.507429      126.945405      222.564160    15     1     0     0     3   3.843 0.000E+00 0.000E+00 0.123E+01
       197.314632       79.041790      128.483059     7     3     0     0     7   2.981 0.000E+00 0.000E+00 0.459E+00
        32.370717       92.601579     2053.730666     1     0     0     0     1   1.560 0.663E+00 0.133E+01 0.000E+00
       185.653702       33.368032      162.772698     6     3     0     0     2   2.832 0.000E+00 0.000E+00 0.466E+00
       136.157686      115.145489      382.870616     6     0     0     0     5   2.830 0.663E-15 0.133E-14 0.449E-07
        53.686581       88.143623      695.932070    19     0     0     0     2   4.160 0.663E-54 0.133E-53 0.242E-13
       197.666948       80.736528      489.120152    16     0     0     0     6   3.930 0.663E-45 0.133E-44 0.969E-13
        44.320441       51.839916      773.015850    24     0     0     0     3   4.500 0.663E-69 0.133E-68 0.421E-14
        20.316145       14.964571      266.941194    10     3     0     0     6   3.357 0.000E+00 0.000E+00 0.449E+00
       192.732729       44.594056     1665.543072     1     0     0     0     5   1.560 0.663E+00 0.133E+01 0.000E+00
        14.620965       42.030617       75.171912    17     3     0     0     4   4.007 0.000E+00 0.000E+00 0.442E+00
       158.619432       76.161732      107.038533    11     7     0     0     8   3.466 0.000E+00 0.000E+00 0.543E+01
       130.363798        4.167890      380.887033     9     0     0     0     7   3.240 0.663E-24 0.133E-23 0.216E-10
       116.105942        4.551717      458.572817     9     0     0     0     8   3.240 0.663E-24 0.133E-23 0.216E-10
        79.016203        3.171207      685.268528    21     0     0     0     1   4.300 0.663E-60 0.133E-59 0.112E-13
        72.878291        7.945426      166.329290    11     7     0     0     8   3.466 0.000E+00 0.000E+00 0.543E+01
       146.496027       50.757826       95.220335     8     5     0     0     8   3.117 0.000E+00 0.000E+00 0.705E+00
        38.504900      141.851981     1411.901005     1     0     0     0     6   1.560 0.663E+00 0.133E+01 0.000E+00
        17.214158      161.105156      239.248219    10     1     0     0     3   3.357 0.000E+00 0.000E+00 0.211E+00
        68.533278       45.850474     1268.878452     1     0     0     0     8   1.560 0.663E+00 0.133E+01 0.000E+00
       194.869118       39.485084      213.927308     9     5     0     0     7   3.241 0.000E+00 0.000E+00 0.688E+00
        33.652471      128.282407      806.545984    26     0     0     0     5   4.620 0.663E-75 0.133E-74 0.240E-14
       120.987692       93.228463      419.160634    12     0     0     0     6   3.570 0.663E-33 0.133E-32 0.124E-11
        57.884074      124.715457       70.313490    12     4     0     0     4   3.568 0.000E+00 0.000E+00 0.551E+00
        43.644571      116.036595      124.681332    13     9     0     0     2   3.664 0.000E+00 0.000E+00 0.696E+01
       105.412705      181.900153      465.141268    20     0     0     0     6   4.230 0.663E-57 0.133E-56 0.163E-13
       103.094195       80.669838     1144.504814     1     0     0     0     7   1.560 0.663E+00 0.133E+01 0.000E+00
        64.975166       96.161527     1535.687734     1     0     0     0     5   1.560 0.663E+00 0.133E+01 0.000E+00
        87.167441      168.430487       78.865369     8     2     0     0     1   3.117 0.000E+00 0.000E+00 0.339E+00
         2.862109      118.480941      758.360725    18     0     0     0     3   4.080 0.663E-51 0.133E-50 0.370E-13
       141.897536       63.343014      565.356000    13     0     0     0     8   3.660 0.663E-36 0.133E-35 0.588E-12
        32.192202      118.320390      682.922112    13     0     0     0     5   3.660 0.663E-36 0.133E-35 0.588E-12
       120.531350       69.535966      495.664905     9     0     0     0     2   3.240 0.663E-24 0.133E-23 0.216E-10
        29.151122        2.868140      960.446513    25     0     0     0     2   4.560 0.663E-72 0.133E-71 0.315E-14
       192.165730      135.997317      620.823106    22     0     0     0     7   4.370 0.663E-63 0.133E-62 0.793E-14
       112.332052      124.486857      289.435989    12     3     0     0     7   3.568 0.000E+00 0.000E+00 0.446E+00
       194.805075      124.950340     1385.124767     1     0     0     0     3   1.560 0.663E+00 0.133E+01 0.000E+00
       125.251883       48.286411      660.119129    27     0     0     0     1   4.680 0.663E-78 0.133E-77 0.185E-14
         9.034998       29.961261      372.519227    12     0     0     0     1   3.570 0.663E-33 0.133E-32 0.124E-11
       187.432685       59.188431     1849.095862     1     0     0     0     3   1.560 0.663E+00 0.133E+01 0.000E+00
       194.170470      170.391021     1088.637316     1     0     0     0     5   1.560 0.663E+00 0.133E+01 0.000E+00
       135.710094       97.828391      111.256665    10     4     0     0     7   3.357 0.000E+00 0.000E+00 0.559E+00
       129.068781       45.942443      366.161557     8     3     0     0     5   3.117 0.000E+00 0.000E+00 0.455E+00
        59.843688      135.981897       32.455549     6     2     0     0     7   2.832 0.000E+00 0.000E+00 0.342E+00
        84.776346       17.674247      857.278091    24     0     0     0     5   4.500 0.663E-69 0.133E-68 0.421E-14
       120.053956       52.522876      703.534843    22     0     0     0     8   4.370 0.663E-63 0.133E-62 0.793E-14
        87.302005      152.429467       92.463803    11     5     0     0     6   3.466 0.000E+00 0.000E+00 0.667E+00
       193.729080       76.270517      375.330694     8     1     0     0     8   3.117 0.000E+00 0.000E+00 0.211E+00
       150.734745       44.339680      539.575542    12     0     0     0     3   3.570 0.663E-33 0.133E-32 0.124E-11
       103.259764       30.789708     1527.853811     1     0     0     0     3   1.560 0.663E+00 0.133E+01 0.000E+00
        63.453025      190.675142      304.142221    10     3     0     0     5   3.357 0.000E+00 0.000E+00 0.449E+00
        53.647173      107.492386      400.707070    11     0     0     0     7   3.470 0.663E-30 0.133E-29 0.283E-11
       113.530682      128.565487     1012.105378     1     0     0     0     4   1.560 0.663E+00 0.133E+01 0.000E+00
        63.514784        9.564383      426.956287     9     0     0     0     7   3.240 0.663E-24 0.133E-23 0.216E-10
       144.341793      127.742978      244.927566     9     5     0     0     3   3.241 0.000E+00 0.000E+00 0.688E+00
       148.202653      198.443104       84.509234    12     6     0     0     6   3.568 0.000E+00 0.000E+00 0.453E+01
       182.536515      123.660241      154.057776    12     6     0     0     1   3.568 0.000E+00 0.000E+00 0.453E+01
        32.823934       23.032189      293.747106     7     4     0     0     1   2.981 0.000E+00 0.000E+00 0.585E+00
       163.979689      116.460209       47.705366    11     7     0     0     5   3.466 0.000E+00 0.000E+00 0.543E+01
       159.339540       75.600692     1145.551060     1     0     0     0     6   1.560 0.663E+00 0.133E+01 0.000E+00
        78.904408      148.171837     1203.651867     1     0     0     0     1   1.560 0.663E+00 0.133E+01 0.000E+00
       138.248213       95.792369      529.222476    14     0     0     0     3   3.760 0.663E-39 0.133E-38 0.304E-12
       142.314409      191.032037       42.048257    14     4     0     0     3   3.756 0.000E+00 0.000E+00 0.547E+00
        56.129533      122.381657      155.283408     9     6     0     0     4   3.241 0.000E+00 0.000E+00 0.830E+00
       154.719971       93.712585       72.348555     6     3     0     0     7   2.832 0.000E+00 0.000E+00 0.466E+00
        97.801170       17.606150     1134.036130     1     0     0     0     2   1.560 0.663E+00 0.133E+01 0.000E+00
       151.021783      152.586119      294.513082     9     6     0     0     8   3.241 0.000E+00 0.000E+00 0.830E+00
        23.194560       35.064901     1355.547125     1     0     0     0     3   1.560 0.663E+00 0.133E+01 0.000E+00
       137.376661      191.591577     1037.341946    41     0     0     0     2   5.370 0.663-120 0.133-119 0.131E-15
        54.975127       27.033315       91.402026    14     2     0     0     6   3.756 0.000E+00 0.000E+00 0.336E+00
        64.169159       44.376127       27.088228    12     1     0     0     7   3.568 0.000E+00 0.000E+00 0.211E+00
       112.310470      190.374464      340.845641     8     0     0     0     3   3.120 0.663E-21 0.133E-20 0.653E-07
       169.807176      165.340602     1909.206226     1     0     0     0     2   1.560 0.663E+00 0.133E+01 0.000E+00
       158.292624       78.586338      415.084022    19     0     0     0     3   4.160 0.663E-54 0.133E-53 0.242E-13
         6.634799       20.574716      319.401105    14     3     0     0     1   3.756 0.000E+00 0.000E+00 0.445E+00
       185.426611       31.295317      486.032669    18     1     0     0     5   4.084 0.000E+00 0.000E+00 0.210E+00
       142.663830      129.976017      590.271989    23     0     0     0     1   4.430 0.663E-66 0.133E-65 0.571E-14
       163.275475      104.479435     1437.622258     1     0     0     0     3   1.560 0.663E+00 0.133E+01 0.000E+00
        74.125379      186.008205      224.895500    15     0     0     0     2   3.840 0.663E-42 0.133E-41 0.166E-12
       105.636755       96.246122       77.162972    12     4     0     0     6   3.568 0.000E+00 0.000E+00 0.551E+00
       115.686529       33.561917     1632.458548     1     0     0     0     7   1.560 0.663E+00 0.133E+01 0.000E+00
        25.693522      111.448842     2074.608565     1     0     0     0     7   1.560 0.663E+00 0.133E+01 0.000E+00
         3.383076        8.990276       94.711516    24     9     0     0     5   4.495 0.000E+00 0.000E+00 0.100E+01
        74.953408       16.705855      123.657347     8     5     0     0     6   3.117 0.000E+00 0.000E+00 0.705E+00
        12.959783      160.492750       94.339551     8     4     0     0     5   3.117 0.000E+00 0.000E+00 0.573E+00
        60.417548      124.033236     2062.293185     1     0     0     0     7   1.560 0.663E+00 0.133E+01 0.000E+00
       126.635138       70.994907       58.804537    13     7     0     0     2   3.664 0.000E+00 0.000E+00 0.887E+00
        20.240241      165.908759       62.109052    12     6     0     0     5   3.568 0.000E+00 0.000E+00 0.453E+01
        47.815967       75.836501      316.915706     9     0     0     0     7   3.240 0.663E-24 0.133E-23 0.216E-10
       134.691756       73.108936      514.584422    20     0     0     0     1   4.230 0.663E-57 0.133E-56 0.163E-13
       157.066830       30.971370      286.115563    11     3     0     0     2   3.466 0.000E+00 0.000E+00 0.448E+00
        91.102516       27.250869      230.658806     9     5     0     0     6   3.241 0.000E+00 0.000E+00 0.688E+00
        82.658531      117.489808      437.260206    13     2     0     0     2   3.664 0.000E+00 0.000E+00 0.336E+00
        11.897631       96.102907      270.102150    14     3     0     0     3   3.756 0.000E+00 0.000E+00 0.445E+00
        70.462996        1.567794      126.675654    12     4     0     0     3   3.568 0.000E+00 0.000E+00 0.551E+00
        79.880707      149.743571      424.642667    12     0     0     0     5   3.570 0.663E-33 0.133E-32 0.124E-11
        50.462968      182.691284      871.456278    34     0     0     0     1   5.050 0.663E-99 0.133E-98 0.410E-15
        53.338135      166.090188      341.611804     6     3     0     0     4   2.832 0.000E+00 0.000E+00 0.466E+00
       145.580067       51.858769     1789.739557     1     0     0     0     5   1.560 0.663E+00 0.133E+01 0.000E+00
         7.068869      105.832722       86.135320    13     5     0     0     3   3.664 0.000E+00 0.000E+00 0.653E+00
        28.682362      100.261744       39.360714    18     6     0     0     7   4.084 0.000E+00 0.000E+00 0.734E+00
       142.025835       25.090515      831.189079    14     0     0     0     6   3.760 0.663E-39 0.133E-38 0.304E-12
        29.144327       51.612086      654.601244    14     0     0     0     4   3.760 0.663E-39 0.133E-38 0.304E-12
       187.804135       88.098847      320.517775    12     3     0     0     7   3.568 0.000E+00 0.000E+00 0.446E+00
       144.166039       75.667655     2042.237906     1     0     0     0     6   1.560 0.663E+00 0.133E+01 0.000E+00
       198.013995      115.722236      265.876575    14     5     0     0     7   3.756 0.000E+00 0.000E+00 0.379E+01
        39.906266      152.520030     1239.262181     1     0     0     0     4   1.560 0.663E+00 0.133E+01 0.000E+00
       147.011756      187.597028      659.470206    20     0     0     0     5   4.230 0.663E-57 0.133E-56 0.163E-13
       156.833165       82.166430      500.425169    12     0     0     0     3   3.570 0.663E-33 0.133E-32 0.124E-11
        94.656289      139.871803      191.245201    24     9     0     0     2   4.495 0.000E+00 0.000E+00 0.100E+01
       122.847730      134.822810       83.015571    11     5     0     0     1   3.466 0.000E+00 0.000E+00 0.667E+00
       114.127158      185.187838     1387.034924     1     0     0     0     3   1.560 0.663E+00 0.133E+01 0.000E+00
       139.698075      159.703354      387.870412     8     1     0     0     4   3.117 0.000E+00 0.000E+00 0.211E+00
       100.498573       41.635112      149.637204     9     4     0     0     5   3.241 0.000E+00 0.000E+00 0.565E+00
       180.928504       22.893776      498.095555    14     0     0     0     4   3.760 0.663E-39 0.133E-38 0.304E-12
        65.967448       49.346885      650.917390    21     0     0     0     6   4.300 0.663E-60 0.133E-59 0.112E-13
       124.471473       44.007639      202.775747    17     4     0     0     4   4.007 0.000E+00 0.000E+00 0.542E+00
       146.336341       66.585208     1454.820990     1     0     0     0     4   1.560 0.663E+00 0.133E+01 0.000E+00
       148.275493      154.540756     2096.241429     1     0     0     0     3   1.560 0.663E+00 0.133E+01 0.000E+00
       188.134533       74.787424      175.262033    17     5     0     0     8   4.007 0.000E+00 0.000E+00 0.374E+01
       198.175322      128.462898       39.728176     8     4     0     0     2   3.117 0.000E+00 0.000E+00 0.573E+00
        10.605582       84.411499      697.701822    15     0     0     0     3   3.840 0.663E-42 0.133E-41 0.166E-12
       184.077770      140.936398      585.808387    15     0     0     0     3   3.840 0.663E-42 0.133E-41 0.166E-12
       171.120022       52.077527     1716.722357     1     0     0     0     8   1.560 0.663E+00 0.133E+01 0.000E+00
        58.214852        1.993577      279.149481     6     4     0     0     6   2.832 0.000E+00 0.000E+00 0.601E+00
       159.053500       69.830128       31.437147     9     0     0     0     4   3.240 0.663E-24 0.133E-23 0.216E-10
       191.218525       46.784464     1098.969216     1     0     0     0     1   1.560 0.663E+00 0.133E+01 0.000E+00
        80.195313       28.451130      592.027274    19     0     0     0     8   4.160 0.663E-54 0.133E-53 0.242E-13
        80.422664      138.339351      756.990888    16     0     0     0     6   3.930 0.663E-45 0.133E-44 0.969E-13
        10.229538      109.794347      161.628399    12     3     0     0     3   3.568 0.000E+00 0.000E+00 0.446E+00
       158.733123      142.426843       92.670934     9     6     0     0     4   3.241 0.000E+00 0.000E+00 0.830E+00
       104.231474      128.312817       47.057942    11     5     0     0     4   3.466 0.000E+00 0.000E+00 0.667E+00
       180.066198       71.559589      147.437813     7     5     0     0     1   2.981 0.000E+00 0.000E+00 0.427E+01
       172.909563      124.022744      340.917032    13     0     0     0     1   3.660 0.663E-36 0.133E-35 0.588E-12
       116.490358       58.226885      100.210725    10     3     0     0     2   3.357 0.000E+00 0.000E+00 0.449E+00
        65.012992      172.485156      348.296064    16     1     0     0     7   3.927 0.000E+00 0.000E+00 0.210E+00
        13.691884      122.587275     1534.908312     1     0     0     0     8   1.560 0.663E+00 0.133E+01 0.000E+00
        51.874612       88.672918     2122.739608     1     0     0     0     8   1.560 0.663E+00 0.133E+01 0.000E+00
       169.600259      190.786053       58.845924     9     3     0     0     4   3.241 0.000E+00 0.000E+00 0.452E+00
         1.408147      157.507900     1277.047289     1     0     0     0     8   1.560 0.663E+00 0.133E+01 0.000E+00
        54.817045       22.955517     1779.966200     1     0     0     0     7   1.560 0.663E+00 0.133E+01 0.000E+00
        52.189601       96.775709      434.766350    15     0     0     0     1   3.840 0.663E-42 0.133E-41 0.166E-12
       109.367462       45.892962     1167.992818     1     0     0     0     8   1.560 0.663E+00 0.133E+01 0.000E+00
       106.199210      145.446176      375.731000    11     0     0     0     6   3.470 0.663E-30 0.133E-29 0.283E-11
        69.193054       11.089508      204.626131    19     7     0     0     8   4.158 0.000E+00 0.000E+00 0.829E+00
       148.646724       11.381769      118.995798    10     4     0     0     8   3.357 0.000E+00 0.000E+00 0.559E+00
        16.698661      154.469899      359.965798    10     0     0     0     2   3.360 0.663E-27 0.133E-26 0.724E-11
       107.280029       69.512174      796.301420    21     0     0     0     3   4.300 0.663E-60 0.133E-59 0.112E-13
       187.099156       25.839670      594.451228    18     0     0     0     5   4.080 0.663E-51 0.133E-50 0.370E-13
        63.585400      127.145171      101.709727    11     6     0     0     7   3.466 0.000E+00 0.000E+00 0.788E+00
       140.277058      119.318535      725.001754    24     0     0     0     7   4.500 0.663E-69 0.133E-68 0.421E-14
       183.058259      157.405006      921.293093    31     0     0     0     5   4.900 0.663E-90 0.133E-89 0.738E-15
       167.082795      130.484526      510.113699    10     0     0     0     1   3.360 0.663E-27 0.133E-26 0.724E-11
        18.077024       95.755857      327.978975    17     4     0     0     4   4.007 0.000E+00 0.000E+00 0.542E+00
       147.168263      181.149738      270.992300    10     5     0     0     7   3.357 0.000E+00 0.000E+00 0.396E+01
       195.175145       78.858377       17.046681     9     2     0     0     7   3.241 0.000E+00 0.000E+00 0.338E+00
        24.395058       39.213254     1827.610053     1     0     0     0     3   1.560 0.663E+00 0.133E+01 0.000E+00
       134.770674       31.589511      209.956311    14     4     0     0     7   3.756 0.000E+00 0.000E+00 0.547E+00
       137.206159      159.188233      820.382391    22     0     0     0     8   4.370 0.663E-63 0.133E-62 0.793E-14
        14.297527      191.558534      818.868754    16     0     0     0     4   3.930 0.663E-45 0.133E-44 0.969E-13
       186.506977       27.125986      560.284272    23     0     0     0     4   4.430 0.663E-66 0.133E-65 0.571E-14
       149.233474      171.371095      117.226682    22     8     0     0     4   4.367 0.000E+00 0.000E+00 0.911E+00
       155.472320      182.582328      629.701769    20     0     0     0     7   4.230 0.663E-57 0.133E-56 0.163E-13
       144.497725       61.239522      321.732739    16     3     0     0     8   3.927 0.000E+00 0.000E+00 0.259E+01
        78.791214       33.816759     1762.452853     1     0     0     0     2   1.560 0.663E+00 0.133E+01 0.000E+00
        99.904478       14.845673      103.563467    10     3     0     0     7   3.357 0.000E+00 0.000E+00 0.449E+00
        92.433881      170.491461      138.245294    13     4     0     0     3   3.664 0.000E+00 0.000E+00 0.548E+00
        32.751345       25.417260     1198.816931     1     0     0     0     5   1.560 0.663E+00 0.133E+01 0.000E+00
        83.578519      100.506524      290.298083    11     3     0     0     6   3.466 0.000E+00 0.000E+00 0.448E+00
        76.230508      149.699902      269.608101    25     9     0     0     5   4.557 0.000E+00 0.000E+00 0.997E+00
        72.806515      164.923118     1161.694378     1     0     0     0     6   1.560 0.663E+00 0.133E+01 0.000E+00
        85.048966       55.698511      337.603253    10     3     0     0     3   3.357 0.000E+00 0.000E+00 0.449E+00
       148.550447      123.445239     1623.867272     1     0     0     0     5   1.560 0.663E+00 0.133E+01 0.000E+00
       132.145149       38.579207       49.018579    16     2     0     0     7   3.927 0.000E+00 0.000E+00 0.336E+00
        22.258180       97.809548      340.450692    13     1     0     0     5   3.664 0.000E+00 0.000E+00 0.132E-01
       196.855819      130.746666      151.344618    13     6     0     0     4   3.664 0.000E+00 0.000E+00 0.765E+00
       122.167492       39.868017      135.847786    16     2     0     0     2   3.927 0.000E+00 0.000E+00 0.336E+00
        88.623267      144.174665       88.564805    12     5     0     0     8   3.568 0.000E+00 0.000E+00 0.385E+01
        90.409988       14.959585      315.807017    10     4     0     0     5   3.357 0.000E+00 0.000E+00 0.559E+00
       153.168691      153.705717      887.246612     1     0     0     0     2   1.560 0.663E+00 0.133E+01 0.000E+00
        93.070350       90.751212      911.882230    45     0     0     0     5   5.540 0.663-132 0.133-131 0.770E-16
       121.818578       42.282754      474.555443    11     0     0     0     8   3.470 0.663E-30 0.133E-29 0.283E-11
       194.970010      180.427665      386.196369    15     0     0     0     3   3.840 0.663E-42 0.133E-41 0.166E-12
        67.039214       19.488600      235.468423    16     3     0     0     3   3.927 0.000E+00 0.000E+00 0.259E+01
        39.214112       34.420921      130.047918    18     7     0     0     2   4.084 0.000E+00 0.000E+00 0.488E+01
        33.055306      167.467921      316.464628    11     2     0     0     4   3.466 0.000E+00 0.000E+00 0.337E+00
       127.727000      194.187955     1486.461042     1     0     0     0     6   1.560 0.663E+00 0.133E+01 0.000E+00
        33.819008      185.434281      627.026582    16     0     0     0     8   3.930 0.663E-45 0.133E-44 0.969E-13
       198.706249       28.854689      618.456514    26     0     0     0     2   4.620 0.663E-75 0.133E-74 0.240E-14
       189.625262       48.658551       51.156701    14     3     0     0     2   3.756 0.000E+00 0.000E+00 0.445E+00
       156.144721       56.550525      237.821346    10     5     0     0     7   3.357 0.000E+00 0.000E+00 0.396E+01
       102.259066      137.264317      148.036978    12     4     0     0     5   3.568 0.000E+00 0.000E+00 0.551E+00
       181.520875       29.850086      287.197145    14     4     0     0     8   3.756 0.000E+00 0.000E+00 0.547E+00
       140.998689       86.963348      101.502835     7     3     0     0     6   2.981 0.000E+00 0.000E+00 0.459E+00
       195.200800      181.074046      986.023322     1     0     0     0     5   1.560 0.663E+00 0.133E+01 0.000E+00
       182.243656      112.029952     1821.848910     1     0     0     0     4   1.560 0.663E+00 0.133E+01 0.000E+00
       174.794023      145.135793      574.364041     7     0     0     0     5   2.980 0.663E-18 0.133E-17 0.163E-05
        68.774381      162.574008     1276.417236     1     0     0     0     1   1.560 0.663E+00 0.133E+01 0.000E+00
        93.024411      139.894656      625.214478    18     0     0     0     3   4.080 0.663E-51 0.133E-50 0.370E-13
        79.937502       73.020575      210.341197    21    12     0     0     4   4.299 0.000E+00 0.000E+00 0.140E+01
        83.675030       86.362751      489.752464    17     0     0     0     5   4.010 0.663E-48 0.133E-47 0.587E-13
       166.500899       84.496367      769.340898    20     0     0     0     3   4.230 0.663E-57 0.133E-56 0.163E-13
       101.224175      186.258487      221.090993    14     5     0     0     4   3.756 0.000E+00 0.000E+00 0.379E+01
       157.791608      176.559541     1523.668682     1     0     0     0     5   1.560 0.663E+00 0.133E+01 0.000E+00
       181.948877      107.519998      257.231291     9     6     0     0     8   3.241 0.000E+00 0.000E+00 0.830E+00
        18.190717      148.746673      336.968478     9     1     0     0     1   3.241 0.000E+00 0.000E+00 0.211E+00
       110.532367      164.015391       40.731932     7     5     0     0     3   2.981 0.000E+00 0.000E+00 0.427E+01
        98.237489        4.501858      325.001990     8     5     0     0     6   3.117 0.000E+00 0.000E+00 0.705E+00
        74.651841       10.524273      640.671566    20     0     0     0     3   4.230 0.663E-57 0.133E-56 0.163E-13
       163.759382      194.260116      700.347634    26     0     0     0     8   4.620 0.663E-75 0.133E-74 0.240E-14
        86.285633      164.519133      163.374767    14     4     0     0     4   3.756 0.000E+00 0.000E+00 0.547E+00
         3.183738       87.720472      301.069663     8     1     0     0     5   3.117 0.000E+00 0.000E+00 0.211E+00
       126.138569       54.533245      341.234920    10     1     0     0     1   3.357 0.000E+00 0.000E+00 0.211E+00
        81.948468       71.784479      726.114061    13     0     0     0     2   3.660 0.663E-36 0.133E-35 0.588E-12
       189.274453      144.939571      795.019819    19     0     0     0     4   4.160 0.663E-54 0.133E-53 0.242E-13
        77.048260      155.468386      578.055124    14     0     0     0     8   3.760 0.663E-39 0.133E-38 0.304E-12
        45.379479      155.019283     1355.691128     1     0     0     0     4   1.560 0.663E+00 0.133E+01 0.000E+00
        57.483120       95.859722       70.969911    10     4     0     0     2   3.357 0.000E+00 0.000E+00 0.559E+00
        24.031469       58.631028      387.606556     9     0     0     0     4   3.240 0.663E-24 0.133E-23 0.216E-10
         9.968392      150.849465      389.379456    15     0     0     0     8   3.840 0.663E-42 0.133E-41 0.166E-12
        25.903785       61.431064     1707.519671     1     0     0     0     5   1.560 0.663E+00 0.133E+01 0.000E+00
       180.217583      128.346730     1132.599823     1     0     0     0     8   1.560 0.663E+00 0.133E+01 0.000E+00
        81.740453       40.801116      619.303770    11     0     0     0     7   3.470 0.663E-30 0.133E-29 0.283E-11
       118.313144      104.423288      852.467424    32     0     0     0     1   4.950 0.663E-93 0.133E-92 0.601E-15
       122.726659       38.649775      783.797179    24     0     0     0     8   4.500 0.663E-69 0.133E-68 0.421E-14
        39.553546       58.691464      282.306919     9     5     0     0     3   3.241 0.000E+00 0.000E+00 0.688E+00
       178.167335      159.217288       40.589806     7     4     0     0     4   2.981 0.000E+00 0.000E+00 0.585E+00
       188.094322      187.147119      428.851439     8     0     0     0     8   3.120 0.663E-21 0.133E-20 0.653E-07
        44.593968       21.339878     1280.627686     1     0     0     0     4   1.560 0.663E+00 0.133E+01 0.000E+00
        70.369102       23.389450      918.101404     1     0     0     0     1   1.560 0.663E+00 0.133E+01 0.000E+00
       116.469202       70.550058      668.714295    10     0     0     0     8   3.360 0.663E-27 0.133E-26 0.724E-11
        73.355144       49.384620      195.987254     5     1     0     0     7   2.665 0.000E+00 0.000E+00 0.211E+00
       192.681945       49.246727       64.439787    14     4     0     0     4   3.756 0.000E+00 0.000E+00 0.547E+00
        76.931506      118.525874      682.106061    20     0     0     0     6   4.230 0.663E-57 0.133E-56 0.163E-13
       104.331169       94.768932     2066.088460     1     0     0     0     3   1.560 0.663E+00 0.133E+01 0.000E+00
       174.540021      182.971298      217.515010    10     6     0     0     3   3.357 0.000E+00 0.000E+00 0.472E+01
        81.566789      169.614763     1227.367289     1     0     0     0     1   1.560 0.663E+00 0.133E+01 0.000E+00
       149.523570       24.503941      234.071743    10     3     0     0     5   3.357 0.000E+00 0.000E+00 0.449E+00
        37.395648       99.975636      587.599734    12     0     0     0     3   3.570 0.663E-33 0.133E-32 0.124E-11
       189.848788       29.032951     1431.690304     1     0     0     0     8   1.560 0.663E+00 0.133E+01 0.000E+00
       105.430209      157.253403      351.959250    12     2     0     0     3   3.568 0.000E+00 0.000E+00 0.336E+00
       181.713684      105.156525     1355.113118     1     0     0     0     6   1.560 0.663E+00 0.133E+01 0.000E+00
       194.942997       13.842474        8.725081     5     0     0     0     5   2.660 0.663E-12 0.133E-11 0.344E-05
       118.167413      169.709737      691.073765    24     0     0     0     2   4.500 0.663E-69 0.133E-68 0.421E-14
       182.339901      169.537541      304.966291    15     0     0     0     2   3.840 0.663E-42 0.133E-41 0.166E-12
       199.498014      176.036191      779.627938    12     0     0     0     6   3.570 0.663E-33 0.133E-32 0.124E-11
       177.870505       23.881618       26.486996    14     3     0     0     1   3.756 0.000E+00 0.000E+00 0.445E+00
        62.596376      142.325975      174.362461    17     5     0     0     8   4.007 0.000E+00 0.000E+00 0.374E+01
        59.942700       23.938973      303.833771    18     3     0     0     3   4.084 0.000E+00 0.000E+00 0.442E+00
       167.986108       90.083933     1868.197135     1     0     0     0     3   1.560 0.663E+00 0.133E+01 0.000E+00