ITEM: TIMESTEP
0
ITEM: NUMBER OF ATOMS
         523
ITEM: BOX BOUNDS pp pp pp
  0.0000000E+00   200.000000000000     
  0.0000000E+00   200.000000000000     
  0.0000000E+00   5000.00000000000     
ITEM: ATOMS x y z f1 f2 f3 f4 orient radius rate_mig rate_rot rate_emit
       197.473397      165.572987      220.150275    13     7     0     0     4   3.664 0.000E+00 0.000E+00 0.143E+01
       146.920815       88.830403     1168.591661     1     0     0     0     7   1.560 0.101E+01 0.202E+01 0.000E+00
       178.981017      162.215417      439.465079     6     1     0     0     7   2.832 0.000E+00 0.000E+00 0.340E+00
        30.788142       84.688705     2058.478391     1     0     0     0     7   1.560 0.101E+01 0.202E+01 0.000E+00
        62.596376      142.325975      174.362461    17     2     0     0     6   4.007 0.000E+00 0.000E+00 0.540E+00
        78.912266       17.473473      338.143712    13     5     0     0     3   3.664 0.000E+00 0.000E+00 0.105E+01
        53.686581       88.143623      695.932070    19     0     0     0     2   4.160 0.101E-53 0.202E-53 0.599E-13
       197.666948       80.736528      489.120152    16     0     0     0     6   3.930 0.101E-44 0.202E-44 0.235E-12
        44.320441       51.839916      773.015850    24     0     0     0     3   4.500 0.101E-68 0.202E-68 0.107E-13
        79.525387      166.645840       31.563814     6     2     0     0     8   2.832 0.000E+00 0.000E+00 0.551E+00
       183.237280       44.594056     1668.708222     1     0     0     0     4   1.560 0.101E+01 0.202E+01 0.000E+00
       164.969134       57.629101       91.534164    11     6     0     0     5   3.466 0.000E+00 0.000E+00 0.127E+01
       195.731233       36.403965      129.665418     8     5     0     0     3   3.117 0.000E+00 0.000E+00 0.113E+01
        86.620927      153.975224      121.417730    11     2     0     0     4   3.466 0.000E+00 0.000E+00 0.543E+00
        18.190717      148.746673      336.968478     9     0     0     0     7   3.240 0.101E-23 0.202E-23 0.483E-10
        79.016203        3.171207      685.268528    21     0     0     0     1   4.300 0.101E-59 0.202E-59 0.281E-13
       194.869118       39.485084      213.927308     9     4     0     0     8   3.241 0.000E+00 0.000E+00 0.909E+00
        64.556375       46.922439      388.368970    11     1     0     0     5   3.466 0.000E+00 0.000E+00 0.339E+00
        40.087475      143.434556     1422.979028     1     0     0     0     3   1.560 0.101E+01 0.202E+01 0.000E+00
       182.339901      169.537541      304.966291    15     0     0     0     7   3.840 0.101E-41 0.202E-41 0.401E-12
        76.446152       47.433048     1264.130727     1     0     0     0     4   1.560 0.101E+01 0.202E+01 0.000E+00
        53.338135      166.090188      341.611804     6     0     0     0     3   2.830 0.101E-14 0.202E-14 0.896E-07
        33.652471      128.282407      806.545984    26     0     0     0     5   4.620 0.101E-74 0.202E-74 0.617E-14
        16.698661      154.469899      359.965798    10     0     0     0     7   3.360 0.101E-26 0.202E-26 0.165E-10
        20.240241      165.908759       62.109052    12     5     0     0     3   3.568 0.000E+00 0.000E+00 0.604E+01
        87.302005      152.429467       92.463803    11     3     0     0     5   3.466 0.000E+00 0.000E+00 0.721E+00
        94.866926        2.365819       19.328712     4     0     0     0     5   2.470 0.101E-08 0.202E-08 0.222E-04
       101.511620       94.913011     1139.757090     1     0     0     0     1   1.560 0.101E+01 0.202E+01 0.000E+00
        68.140316       92.996378     1548.348332     1     0     0     0     4   1.560 0.101E+01 0.202E+01 0.000E+00
       134.295371      139.322942      167.019906    11     7     0     0     7   3.466 0.000E+00 0.000E+00 0.850E+01
         2.862109      118.480941      758.360725    18     0     0     0     3   4.080 0.101E-50 0.202E-50 0.912E-13
       141.897536       63.343014      565.356000    13     0     0     0     8   3.660 0.101E-35 0.202E-35 0.139E-11
        32.192202      118.320390      682.922112    13     0     0     0     5   3.660 0.101E-35 0.202E-35 0.139E-11
       120.531350       69.535966      495.664905     9     0     0     0     2   3.240 0.101E-23 0.202E-23 0.483E-10
        29.151122        2.868140      960.446513    25     0     0     0     2   4.560 0.101E-71 0.202E-71 0.805E-14
       192.165730      135.997317      620.823106    22     0     0     0     7   4.370 0.101E-62 0.202E-62 0.200E-13
       192.681945       49.246727       64.439787    14     4     0     0     8   3.756 0.000E+00 0.000E+00 0.880E+00
       186.892200      126.532915     1393.037642     1     0     0     0     1   1.560 0.101E+01 0.202E+01 0.000E+00
       125.251883       48.286411      660.119129    27     0     0     0     1   4.680 0.101E-77 0.202E-77 0.477E-14
         9.034998       29.961261      372.519227    12     0     0     0     1   3.570 0.101E-32 0.202E-32 0.289E-11
         1.675858       57.605856     1841.182988     1     0     0     0     4   1.560 0.101E+01 0.202E+01 0.000E+00
       194.170470      167.225872     1079.141867     1     0     0     0     2   1.560 0.101E+01 0.202E+01 0.000E+00
        13.844866       53.071363       10.988686     8     0     0     0     2   3.120 0.101E-20 0.202E-20 0.130E-06
       120.987692       93.228463      419.160634    12     1     0     0     5   3.568 0.000E+00 0.000E+00 0.339E+00
       140.199234        4.084596      237.410045    11     4     0     0     4   3.466 0.000E+00 0.000E+00 0.894E+00
        84.776346       17.674247      857.278091    24     0     0     0     5   4.500 0.101E-68 0.202E-68 0.107E-13
       120.053956       52.522876      703.534843    22     0     0     0     8   4.370 0.101E-62 0.202E-62 0.200E-13
        22.258180       97.809548      340.450692    13     2     0     0     8   3.664 0.000E+00 0.000E+00 0.542E+00
        27.083587       16.609617      372.239203     9     3     0     0     4   3.241 0.000E+00 0.000E+00 0.727E+00
        43.347867      174.956552      484.157785    23     1     0     0     2   4.432 0.000E+00 0.000E+00 0.339E+00
       106.424913       43.450307     1531.018960     1     0     0     0     4   1.560 0.101E+01 0.202E+01 0.000E+00
        66.694939       91.046582      185.777667    10     2     0     0     4   3.357 0.000E+00 0.000E+00 0.544E+00
        33.229912      114.915526      166.901534    14     4     0     0     3   3.756 0.000E+00 0.000E+00 0.880E+00
       129.356430      125.400337     1012.105378     1     0     0     0     5   1.560 0.101E+01 0.202E+01 0.000E+00
        47.354822       84.449048      158.471204     9     5     0     0     2   3.241 0.000E+00 0.000E+00 0.111E+01
        87.167441      168.430487       78.865369     8     1     0     0     5   3.117 0.000E+00 0.000E+00 0.339E+00
        43.644571      116.036595      124.681332    13     6     0     0     6   3.664 0.000E+00 0.000E+00 0.123E+01
        59.843688      135.981897       32.455549     6     0     0     0     4   2.830 0.101E-14 0.202E-14 0.896E-07
        69.915281       31.162092      407.321537    11     0     0     0     6   3.470 0.101E-29 0.202E-29 0.654E-11
       154.114390      184.525554       75.340852    13     7     0     0     3   3.664 0.000E+00 0.000E+00 0.143E+01
       160.922114       77.183267     1137.638186     1     0     0     0     7   1.560 0.101E+01 0.202E+01 0.000E+00
        82.069558      148.171837     1187.826119     1     0     0     0     8   1.560 0.101E+01 0.202E+01 0.000E+00
       138.248213       95.792369      529.222476    14     0     0     0     3   3.760 0.101E-38 0.202E-38 0.725E-12
       134.770674       31.589511      209.956311    14     4     0     0     7   3.756 0.000E+00 0.000E+00 0.880E+00
       151.021783      152.586119      294.513082     9     2     0     0     3   3.241 0.000E+00 0.000E+00 0.545E+00
        85.775693       80.531238      160.166091     9     2     0     0     4   3.241 0.000E+00 0.000E+00 0.545E+00
        89.888295       22.353874     1138.783855     1     0     0     0     2   1.560 0.101E+01 0.202E+01 0.000E+00
        32.823934       23.032189      293.747106     7     2     0     0     2   2.981 0.000E+00 0.000E+00 0.548E+00
        20.029411       47.725500     1358.712275     1     0     0     0     8   1.560 0.101E+01 0.202E+01 0.000E+00
       137.376661      191.591577     1037.341946    41     0     0     0     2   5.370 0.101-119 0.202-119 0.353E-15
        11.897631       96.102907      270.102150    14     5     0     0     1   3.756 0.000E+00 0.000E+00 0.595E+01
       121.818578       42.282754      474.555443    11     2     0     0     4   3.466 0.000E+00 0.000E+00 0.543E+00
       153.394634      110.882309      235.431680     9     6     0     0     2   3.241 0.000E+00 0.000E+00 0.133E+01
       174.554900      170.088326     1913.953951     1     0     0     0     6   1.560 0.101E+01 0.202E+01 0.000E+00
       158.292624       78.586338      415.084022    19     0     0     0     3   4.160 0.101E-53 0.202E-53 0.599E-13
        63.090243        4.810164      365.906754    19     4     0     0     8   4.158 0.000E+00 0.000E+00 0.870E+00
       182.536515      123.660241      154.057776    12     2     0     0     1   3.568 0.000E+00 0.000E+00 0.542E+00
       142.663830      129.976017      590.271989    23     0     0     0     1   4.430 0.101E-65 0.202E-65 0.145E-13
       163.275475      107.644585     1434.457108     1     0     0     0     4   1.560 0.101E+01 0.202E+01 0.000E+00
       103.320290       45.503738      122.270463     8     5     0     0     7   3.117 0.000E+00 0.000E+00 0.113E+01
        58.105996       98.380489      274.114953    20     6     0     0     5   4.230 0.000E+00 0.000E+00 0.117E+01
       128.347128       36.727067     1632.458548     1     0     0     0     2   1.560 0.101E+01 0.202E+01 0.000E+00
        38.354120      114.613992     2071.443415     1     0     0     0     8   1.560 0.101E+01 0.202E+01 0.000E+00
        33.949085      189.655045      289.120468     6     5     0     0     4   2.832 0.000E+00 0.000E+00 0.702E+01
        98.061691      142.047210       23.025201     6     0     0     0     1   2.830 0.101E-14 0.202E-14 0.896E-07
       147.168263      181.149738      270.992300    10     4     0     0     5   3.357 0.000E+00 0.000E+00 0.900E+00
        50.922100      111.372637     2059.128036     1     0     0     0     2   1.560 0.101E+01 0.202E+01 0.000E+00
       164.514540        0.054582      184.467838    18     6     0     0     3   4.084 0.000E+00 0.000E+00 0.118E+01
        57.483120       95.859722       70.969911    10     4     0     0     1   3.357 0.000E+00 0.000E+00 0.900E+00
       156.951282      111.389702      216.727265    19     3     0     0     4   4.158 0.000E+00 0.000E+00 0.711E+00
       134.691756       73.108936      514.584422    20     0     0     0     1   4.230 0.101E-56 0.202E-56 0.406E-13
        60.221444      146.072946       44.664971     9     3     0     0     6   3.241 0.000E+00 0.000E+00 0.727E+00
        54.975127       27.033315       91.402026    14     1     0     0     2   3.756 0.000E+00 0.000E+00 0.339E+00
       154.982131      189.888104       89.663860     8     2     0     0     2   3.117 0.000E+00 0.000E+00 0.546E+00
        63.585400      127.145171      101.709727    11     4     0     0     2   3.466 0.000E+00 0.000E+00 0.894E+00
       124.471473       44.007639      202.775747    17     2     0     0     2   4.007 0.000E+00 0.000E+00 0.540E+00
       180.066198       71.559589      147.437813     7     3     0     0     5   2.981 0.000E+00 0.000E+00 0.740E+00
        50.462968      182.691284      871.456278    34     0     0     0     1   5.050 0.101E-98 0.202E-98 0.108E-14
       187.804135       88.098847      320.517775    12     3     0     0     1   3.568 0.000E+00 0.000E+00 0.719E+00
       145.580067       45.528470     1796.069856     1     0     0     0     3   1.560 0.101E+01 0.202E+01 0.000E+00
       149.523570       24.503941      234.071743    10     2     0     0     1   3.357 0.000E+00 0.000E+00 0.544E+00
        29.094753      135.561647      133.338506     7     3     0     0     4   2.981 0.000E+00 0.000E+00 0.740E+00
       142.025835       25.090515      831.189079    14     0     0     0     6   3.760 0.101E-38 0.202E-38 0.725E-12
        29.144327       51.612086      654.601244    14     0     0     0     4   3.760 0.101E-38 0.202E-38 0.725E-12
       135.710094       97.828391      111.256665    10     2     0     0     6   3.357 0.000E+00 0.000E+00 0.544E+00
       134.670590       66.172206     2045.403056     1     0     0     0     2   1.560 0.101E+01 0.202E+01 0.000E+00
       133.901392      104.550800      300.260916     9     4     0     0     1   3.241 0.000E+00 0.000E+00 0.909E+00
        46.236565      146.189731     1245.592480     1     0     0     0     7   1.560 0.101E+01 0.202E+01 0.000E+00
       147.011756      187.597028      659.470206    20     0     0     0     5   4.230 0.101E-56 0.202E-56 0.406E-13
       156.833165       82.166430      500.425169    12     0     0     0     3   3.570 0.101E-32 0.202E-32 0.289E-11
       157.880213       13.190712       30.079589     8     3     0     0     4   3.117 0.000E+00 0.000E+00 0.732E+00
       123.896019       60.025816       67.631162     8     4     0     0     7   3.117 0.000E+00 0.000E+00 0.922E+00
       115.709733      180.440113     1372.791751     1     0     0     0     6   1.560 0.101E+01 0.202E+01 0.000E+00
       198.706249       28.854689      618.456514    26     1     0     0     5   4.617 0.000E+00 0.000E+00 0.221E-01
        67.039214       19.488600      235.468423    16     2     0     0     7   3.927 0.000E+00 0.000E+00 0.541E+00
       180.928504       22.893776      498.095555    14     0     0     0     4   3.760 0.101E-38 0.202E-38 0.725E-12
        65.967448       49.346885      650.917390    21     0     0     0     6   4.300 0.101E-59 0.202E-59 0.281E-13
         3.183738       87.720472      301.069663     8     3     0     0     2   3.117 0.000E+00 0.000E+00 0.732E+00
       147.918916       80.828381     1450.073266     1     0     0     0     5   1.560 0.101E+01 0.202E+01 0.000E+00
       151.440643      164.036205     2102.571728     1     0     0     0     6   1.560 0.101E+01 0.202E+01 0.000E+00
       146.706692      119.683645       51.726415     7     3     0     0     1   2.981 0.000E+00 0.000E+00 0.740E+00
        20.533618       83.983208       73.034931    10     2     0     0     7   3.357 0.000E+00 0.000E+00 0.544E+00
        10.605582       84.411499      697.701822    15     0     0     0     3   3.840 0.101E-41 0.202E-41 0.401E-12
       155.472320      182.582328      629.701769    20     0     0     0     6   4.230 0.101E-56 0.202E-56 0.406E-13
       160.041998       53.660101     1721.470082     1     0     0     0     7   1.560 0.101E+01 0.202E+01 0.000E+00
       144.497725       61.239522      321.732739    16     0     0     0     3   3.930 0.101E-44 0.202E-44 0.235E-12
       163.979689      116.460209       47.705366    11     6     0     0     6   3.466 0.000E+00 0.000E+00 0.127E+01
        43.734269       23.387058     1536.897753     1     0     0     0     8   1.560 0.101E+01 0.202E+01 0.000E+00
        80.195313       28.451130      592.027274    19     0     0     0     8   4.160 0.101E-53 0.202E-53 0.599E-13
        80.422664      138.339351      756.990888    16     0     0     0     6   3.930 0.101E-44 0.202E-44 0.235E-12
        14.356484        0.529404       92.326420     6     2     0     0     2   2.832 0.000E+00 0.000E+00 0.551E+00
       196.855819      130.746666      151.344618    13     8     0     0     3   3.664 0.000E+00 0.000E+00 0.937E+01
        65.273638       47.718646       48.153904    12     1     0     0     5   3.568 0.000E+00 0.000E+00 0.339E+00
       182.973458       80.026475      160.941458    13     4     0     0     8   3.664 0.000E+00 0.000E+00 0.883E+00
       119.343147       98.027318       54.225113     9     2     0     0     6   3.241 0.000E+00 0.000E+00 0.545E+00
       134.742549      198.787342      189.410627    13     7     0     0     1   3.664 0.000E+00 0.000E+00 0.143E+01
        76.200416       95.303656      155.468000    12     4     0     0     2   3.568 0.000E+00 0.000E+00 0.888E+00
       199.448710      124.169850     1526.995438     1     0     0     0     2   1.560 0.101E+01 0.202E+01 0.000E+00
        45.544313       98.168367     2119.574458     1     0     0     0     1   1.560 0.101E+01 0.202E+01 0.000E+00
        19.254229       79.038506      189.797689    18     6     0     0     4   4.084 0.000E+00 0.000E+00 0.118E+01
       188.747548      157.507900     1270.716990     1     0     0     0     8   1.560 0.101E+01 0.202E+01 0.000E+00
        48.486745       26.120666     1776.801051     1     0     0     0     7   1.560 0.101E+01 0.202E+01 0.000E+00
        53.647173      107.492386      400.707070    11     0     0     0     4   3.470 0.101E-29 0.202E-29 0.654E-11
       122.028060       45.892962     1183.818566     1     0     0     0     3   1.560 0.101E+01 0.202E+01 0.000E+00
        49.351751      199.911892      323.751254     8     6     0     0     3   3.117 0.000E+00 0.000E+00 0.139E+01
        70.462996        1.567794      126.675654    12     3     0     0     4   3.568 0.000E+00 0.000E+00 0.719E+00
        53.163309      111.314124       89.989475     9     0     0     0     5   3.240 0.101E-23 0.202E-23 0.483E-10
        13.732802      117.550951      355.985927     6     0     0     0     7   2.830 0.101E-14 0.202E-14 0.896E-07
       107.280029       69.512174      796.301420    21     0     0     0     3   4.300 0.101E-59 0.202E-59 0.281E-13
       187.099156       25.839670      594.451228    18     0     0     0     5   4.080 0.101E-50 0.202E-50 0.912E-13
       149.233474      171.371095      117.226682    22     8     0     0     4   4.367 0.000E+00 0.000E+00 0.147E+01
       140.277058      119.318535      725.001754    24     0     0     0     7   4.500 0.101E-68 0.202E-68 0.107E-13
       183.058259      157.405006      921.293093    31     0     0     0     5   4.900 0.101E-89 0.202E-89 0.193E-14
       167.082795      130.484526      510.113699    10     0     0     0     1   3.360 0.101E-26 0.202E-26 0.165E-10
        10.229538      109.794347      161.628399    12     3     0     0     5   3.568 0.000E+00 0.000E+00 0.719E+00
        91.242323      103.185768      131.290292    10     4     0     0     4   3.357 0.000E+00 0.000E+00 0.900E+00
        39.214112       34.420921      130.047918    18     6     0     0     8   4.084 0.000E+00 0.000E+00 0.118E+01
        14.899609       39.213254     1827.610053     1     0     0     0     2   1.560 0.101E+01 0.202E+01 0.000E+00
        60.288187      192.398045      293.248906     7     3     0     0     5   2.981 0.000E+00 0.000E+00 0.740E+00
       137.206159      159.188233      820.382391    22     0     0     0     8   4.370 0.101E-62 0.202E-62 0.200E-13
        14.297527      191.558534      818.868754    16     0     0     0     4   3.930 0.101E-44 0.202E-44 0.235E-12
       186.506977       27.125986      560.284272    23     0     0     0     4   4.430 0.101E-65 0.202E-65 0.145E-13
       178.642297      131.002360      373.665615    11     0     0     0     7   3.470 0.101E-29 0.202E-29 0.654E-11
        74.651841       10.524273      640.671566    20     0     0     0     7   4.230 0.101E-56 0.202E-56 0.406E-13
       118.971310       49.108488      360.588579    12     3     0     0     3   3.568 0.000E+00 0.000E+00 0.719E+00
        86.704088       38.564483     1770.365727     1     0     0     0     3   1.560 0.101E+01 0.202E+01 0.000E+00
       122.167492       39.868017      135.847786    16     2     0     0     2   3.927 0.000E+00 0.000E+00 0.541E+00
        52.189601       96.775709      434.766350    15     1     0     0     1   3.843 0.000E+00 0.000E+00 0.193E+01
        32.751345       25.417260     1192.486632     1     0     0     0     8   1.560 0.101E+01 0.202E+01 0.000E+00
        58.369825      178.232436       63.643941     9     6     0     0     2   3.241 0.000E+00 0.000E+00 0.133E+01
        21.787236      148.157159      189.561989     6     4     0     0     4   2.832 0.000E+00 0.000E+00 0.967E+00
        68.058791      166.505693     1156.946654     1     0     0     0     5   1.560 0.101E+01 0.202E+01 0.000E+00
        72.878291        7.945426      166.329290    11     5     0     0     2   3.466 0.000E+00 0.000E+00 0.107E+01
       145.385297      113.949791     1636.527870     1     0     0     0     1   1.560 0.101E+01 0.202E+01 0.000E+00
        84.381127      193.194324      395.657210    13     1     0     0     4   3.664 0.000E+00 0.000E+00 0.221E-01
       146.496027       50.757826       95.220335     8     6     0     0     7   3.117 0.000E+00 0.000E+00 0.139E+01
       116.490358       58.226885      100.210725    10     3     0     0     4   3.357 0.000E+00 0.000E+00 0.724E+00
       170.898369      163.056464      297.043522    11     4     0     0     2   3.466 0.000E+00 0.000E+00 0.894E+00
        37.796010      164.756819      163.573743    11     7     0     0     6   3.466 0.000E+00 0.000E+00 0.850E+01
        45.405229        4.051582      284.065301     6     2     0     0     4   2.832 0.000E+00 0.000E+00 0.551E+00
       151.586117      161.618591      876.168588     1     0     0     0     4   1.560 0.101E+01 0.202E+01 0.000E+00
        93.070350       90.751212      911.882230    45     0     0     0     5   5.540 0.101-131 0.202-131 0.209E-15
        28.682362      100.261744       39.360714    18     0     0     0     5   4.080 0.101E-50 0.202E-50 0.912E-13
       194.970010      180.427665      386.196369    15     0     0     0     3   3.840 0.101E-41 0.202E-41 0.401E-12
       165.927880       83.647822      344.094978    16     1     0     0     3   3.927 0.000E+00 0.000E+00 0.339E+00
       154.719971       93.712585       72.348555     6     2     0     0     7   2.832 0.000E+00 0.000E+00 0.551E+00
       101.224175      186.258487      221.090993    14     4     0     0     3   3.756 0.000E+00 0.000E+00 0.880E+00
       122.979276      189.440230     1488.043617     1     0     0     0     7   1.560 0.101E+01 0.202E+01 0.000E+00
        33.819008      185.434281      627.026582    16     0     0     0     8   3.930 0.101E-44 0.202E-44 0.235E-12
       165.221161       84.495012      316.563376    12     4     0     0     2   3.568 0.000E+00 0.000E+00 0.888E+00
       158.733123      142.426843       92.670934     9     1     0     0     4   3.241 0.000E+00 0.000E+00 0.339E+00
        94.867854       38.770102       46.299938    14     2     0     0     5   3.756 0.000E+00 0.000E+00 0.541E+00
         8.988632      108.286100      307.568735    10     4     0     0     8   3.357 0.000E+00 0.000E+00 0.900E+00
       146.028746       27.470077      281.148170     7     5     0     0     6   2.981 0.000E+00 0.000E+00 0.668E+01
        58.487605      198.702774      218.865639    11     6     0     0     1   3.466 0.000E+00 0.000E+00 0.127E+01
       192.035650      174.743747      982.858172     1     0     0     0     2   1.560 0.101E+01 0.202E+01 0.000E+00
       179.078507      115.195102     1821.848910     1     0     0     0     4   1.560 0.101E+01 0.202E+01 0.000E+00
       174.794023      145.135793      574.364041     7     0     0     0     5   2.980 0.101E-17 0.202E-17 0.309E-05
        56.113783      156.243709     1298.573284     1     0     0     0     7   1.560 0.101E+01 0.202E+01 0.000E+00
        93.024411      139.894656      625.214478    18     0     0     0     3   4.080 0.101E-50 0.202E-50 0.912E-13
       198.175322      128.462898       39.728176     8     3     0     0     6   3.117 0.000E+00 0.000E+00 0.732E+00
        83.675030       86.362751      489.752464    17     0     0     0     5   4.010 0.101E-47 0.202E-47 0.144E-12
       166.500899       84.496367      769.340898    20     0     0     0     3   4.230 0.101E-56 0.202E-56 0.406E-13
        73.355144       49.384620      195.987254     5     1     0     0     2   2.665 0.000E+00 0.000E+00 0.341E+00
       132.470411      170.229242     1520.503533     1     0     0     0     4   1.560 0.101E+01 0.202E+01 0.000E+00
       106.579410      102.054590       59.121998     6     4     0     0     7   2.832 0.000E+00 0.000E+00 0.967E+00
       148.646724       11.381769      118.995798    10     3     0     0     7   3.357 0.000E+00 0.000E+00 0.724E+00
        33.055306      167.467921      316.464628    11     3     0     0     1   3.466 0.000E+00 0.000E+00 0.721E+00
        72.660095      132.359960      253.137131     7     4     0     0     2   2.981 0.000E+00 0.000E+00 0.941E+00
        82.658531      117.489808      437.260206    13     1     0     0     2   3.664 0.000E+00 0.000E+00 0.221E-01
       163.759382      194.260116      700.347634    26     0     0     0     8   4.620 0.101E-74 0.202E-74 0.617E-14
        38.248607      147.009478      208.335592    12     4     0     0     5   3.568 0.000E+00 0.000E+00 0.888E+00
       101.630774      133.600193      274.102567    11     4     0     0     2   3.466 0.000E+00 0.000E+00 0.894E+00
       159.053500       69.830128       31.437147     9     3     0     0     3   3.241 0.000E+00 0.000E+00 0.727E+00
        81.948468       71.784479      726.114061    13     0     0     0     2   3.660 0.101E-35 0.202E-35 0.139E-11
       189.274453      144.939571      795.019819    19     0     0     0     4   4.160 0.101E-53 0.202E-53 0.599E-13
        77.048260      155.468386      578.055124    14     0     0     0     8   3.760 0.101E-38 0.202E-38 0.725E-12
        45.379479      158.184432     1371.516877     1     0     0     0     7   1.560 0.101E+01 0.202E+01 0.000E+00
       105.430209      157.253403      351.959250    12     3     0     0     1   3.568 0.000E+00 0.000E+00 0.719E+00
        24.031469       58.631028      387.606556     9     0     0     0     4   3.240 0.101E-23 0.202E-23 0.483E-10
        64.169159       44.376127       27.088228    12     4     0     0     8   3.568 0.000E+00 0.000E+00 0.888E+00
        17.990911       66.178788     1696.441647     1     0     0     0     5   1.560 0.101E+01 0.202E+01 0.000E+00
       183.382732      115.686131     1135.764973     1     0     0     0     2   1.560 0.101E+01 0.202E+01 0.000E+00
        81.740453       40.801116      619.303770    11     0     0     0     7   3.470 0.101E-29 0.202E-29 0.654E-11
       118.313144      104.423288      852.467424    32     0     0     0     1   4.950 0.101E-92 0.202E-92 0.158E-14
       122.726659       38.649775      783.797179    24     0     0     0     8   4.500 0.101E-68 0.202E-68 0.107E-13
       176.489333       45.278720     1091.366153     1     0     0     0     4   1.560 0.101E+01 0.202E+01 0.000E+00
        69.193054       11.089508      204.626131    19     8     0     0     1   4.158 0.000E+00 0.000E+00 0.150E+01
       131.003527      135.578536      417.679856    15     0     0     0     7   3.840 0.101E-41 0.202E-41 0.401E-12
        46.176543        7.096705     1279.045111     1     0     0     0     4   1.560 0.101E+01 0.202E+01 0.000E+00
        81.447126       21.806875      916.518829     1     0     0     0     7   1.560 0.101E+01 0.202E+01 0.000E+00
       116.469202       70.550058      668.714295    10     0     0     0     8   3.360 0.101E-26 0.202E-26 0.165E-10
        79.880707      149.743571      424.642667    12     1     0     0     4   3.568 0.000E+00 0.000E+00 0.339E+00
        91.555690      168.567916       66.232380    16     2     0     0     3   3.927 0.000E+00 0.000E+00 0.541E+00
        76.931506      118.525874      682.106061    20     0     0     0     6   4.230 0.101E-56 0.202E-56 0.406E-13
        93.253145       90.021208     2077.166484     1     0     0     0     3   1.560 0.101E+01 0.202E+01 0.000E+00
        84.249420       51.644100      299.627423     8     6     0     0     1   3.117 0.000E+00 0.000E+00 0.139E+01
        97.392537      163.284464     1233.697588     1     0     0     0     1   1.560 0.101E+01 0.202E+01 0.000E+00
       105.412705      181.900153      465.141268    20     1     0     0     2   4.230 0.000E+00 0.000E+00 0.339E+00
        37.395648       99.975636      587.599734    12     0     0     0     3   3.570 0.101E-32 0.202E-32 0.289E-11
       199.344237       25.867801     1422.194855     1     0     0     0     5   1.560 0.101E+01 0.202E+01 0.000E+00
        39.807883      131.272971       69.574621     8     5     0     0     6   3.117 0.000E+00 0.000E+00 0.113E+01
       167.470510      103.573951     1353.530543     1     0     0     0     2   1.560 0.101E+01 0.202E+01 0.000E+00
       194.942997       13.842474        8.725081     5     0     0     0     8   2.660 0.101E-11 0.202E-11 0.643E-05
       118.167413      169.709737      691.073765    24     0     0     0     2   4.500 0.101E-68 0.202E-68 0.107E-13
       156.290046       89.501436       64.003936    10     4     0     0     3   3.357 0.000E+00 0.000E+00 0.900E+00
       199.498014      176.036191      779.627938    12     0     0     0     6   3.570 0.101E-32 0.202E-32 0.289E-11
       111.711104      144.736190       33.056811     6     0     0     0     7   2.830 0.101E-14 0.202E-14 0.896E-07
       121.505775       77.229141      395.522477    14     1     0     0     1   3.756 0.000E+00 0.000E+00 0.339E+00
        85.048966       55.698511      337.603253    10     2     0     0     6   3.357 0.000E+00 0.000E+00 0.544E+00
       161.655809       86.918784     1884.022884     1     0     0     0     4   1.560 0.101E+01 0.202E+01 0.000E+00