ITEM: TIMESTEP
0
ITEM: NUMBER OF ATOMS
         522
ITEM: BOX BOUNDS pp pp pp
  0.0000000E+00   200.000000000000     
  0.0000000E+00   200.000000000000     
  0.0000000E+00   5000.00000000000     
ITEM: ATOMS x y z f1 f2 f3 f4 orient radius rate_mig rate_rot rate_emit
       172.303838      117.543909      242.596405     8     2     0     0     1   3.117 0.000E+00 0.000E+00 0.136E+01
       117.318408      117.789184      106.004935    11     3     0     0     4   3.466 0.000E+00 0.000E+00 0.180E+01
       146.496027       50.757826       95.220335     8     4     0     0     8   3.117 0.000E+00 0.000E+00 0.229E+01
        33.953291      110.009902     2090.129887     1     0     0     0     6   1.560 0.227E+01 0.455E+01 0.000E+00
       191.645150      195.307816      230.540179    16     1     0     0     7   3.927 0.000E+00 0.000E+00 0.845E+00
       147.168263      181.149738      270.992300    10     2     0     0     3   3.357 0.000E+00 0.000E+00 0.136E+01
        53.686581       88.143623      695.932070    19     0     0     0     2   4.160 0.227E-53 0.455E-53 0.341E-12
       121.858180       90.852696       31.862258     9     0     0     0     5   3.240 0.227E-23 0.455E-23 0.225E-09
        44.320441       51.839916      773.015850    24     0     0     0     3   4.500 0.227E-68 0.455E-68 0.643E-13
       134.742549      198.787342      189.410627    13     6     0     0     4   3.664 0.000E+00 0.000E+00 0.306E+01
        14.888777       41.428906     1700.359718     1     0     0     0     7   1.560 0.227E+01 0.455E+01 0.000E+00
        74.654327      187.007876      576.504350    21     0     0     0     3   4.300 0.227E-59 0.455E-59 0.163E-12
       161.856563      155.676731      536.776224    23     0     0     0     1   4.430 0.227E-65 0.455E-65 0.859E-13
       180.158755      191.942447      191.116486    14     3     0     0     8   3.756 0.000E+00 0.000E+00 0.178E+01
        60.288187      192.398045      293.248906     7     3     0     0     6   2.981 0.000E+00 0.000E+00 0.184E+01
       173.919202      110.405202      116.268054    12     4     0     0     8   3.568 0.000E+00 0.000E+00 0.221E+01
       118.756428       77.532862      163.896739    17     3     0     0     7   4.007 0.000E+00 0.000E+00 0.178E+01
        42.085409       15.425974      513.798196    13     1     0     0     4   3.664 0.000E+00 0.000E+00 0.596E-01
        40.087475      140.269406     1388.162382     1     0     0     0     2   1.560 0.227E+01 0.455E+01 0.000E+00
       162.064654       92.677461     1172.438720     2     0     0     0     6   1.960 0.227E-02 0.455E-02 0.228E+01
       106.515074       26.859576     1265.713302     1     0     0     0     8   1.560 0.227E+01 0.455E+01 0.000E+00
       126.138569       54.533245      341.234920    10     3     0     0     4   3.357 0.000E+00 0.000E+00 0.180E+01
        33.652471      128.282407      806.545984    26     0     0     0     5   4.620 0.227E-74 0.455E-74 0.376E-13
       165.927880       83.647822      344.094978    16     2     0     0     5   3.927 0.000E+00 0.000E+00 0.135E+01
        79.016203        3.171207      685.268528    21     0     0     0     6   4.300 0.227E-59 0.455E-59 0.163E-12
        88.623267      144.174665       88.564805    12     3     0     0     1   3.568 0.000E+00 0.000E+00 0.179E+01
       167.082795      130.484526      510.113699    10     1     0     0     5   3.357 0.000E+00 0.000E+00 0.846E+00
        77.772998      112.321334     1182.486610     1     0     0     0     3   1.560 0.227E+01 0.455E+01 0.000E+00
        53.897143       85.083503     1553.096057     1     0     0     0     4   1.560 0.227E+01 0.455E+01 0.000E+00
        85.048966       55.698511      337.603253    10     3     0     0     5   3.357 0.000E+00 0.000E+00 0.180E+01
       147.011756      187.597028      659.470206    20     0     0     0     4   4.230 0.227E-56 0.455E-56 0.234E-12
       141.897536       63.343014      565.356000    13     0     0     0     8   3.660 0.227E-35 0.455E-35 0.720E-11
       198.706249       28.854689      618.456514    26     0     0     0     2   4.620 0.227E-74 0.455E-74 0.376E-13
        36.055232      158.460714      136.909562     8     3     0     0     4   3.117 0.000E+00 0.000E+00 0.182E+01
        29.151122        2.868140      960.446513    25     0     0     0     2   4.560 0.227E-71 0.455E-71 0.487E-13
       192.165730      135.997317      620.823106    22     0     0     0     7   4.370 0.227E-62 0.455E-62 0.118E-12
       197.204266       37.593889      237.783320     8     0     0     0     1   3.120 0.227E-20 0.455E-20 0.483E-06
       152.075554      107.542017     1396.202791     1     0     0     0     4   1.560 0.227E+01 0.455E+01 0.000E+00
        72.408778       44.672031      517.991661    18     0     0     0     3   4.080 0.227E-50 0.455E-50 0.513E-12
       180.928504       22.893776      498.095555    14     0     0     0     4   3.760 0.227E-38 0.455E-38 0.383E-11
       185.850110       57.605856     1838.017838     1     0     0     0     7   1.560 0.227E+01 0.455E+01 0.000E+00
       179.927296        0.459943     1109.210789     1     0     0     0     4   1.560 0.227E+01 0.455E+01 0.000E+00
       195.199426      195.538805      152.875568    12     4     0     0     2   3.568 0.000E+00 0.000E+00 0.221E+01
        98.237489        4.501858      325.001990     8     1     0     0     7   3.117 0.000E+00 0.000E+00 0.846E+00
        59.843688      135.981897       32.455549     6     0     0     0     4   2.830 0.227E-14 0.455E-14 0.336E-06
       133.523235      128.058272      873.589551    16     0     0     0     1   3.930 0.227E-44 0.455E-44 0.129E-11
         2.862109      118.480941      758.360725    18     0     0     0     1   4.080 0.227E-50 0.455E-50 0.513E-12
       116.469202       70.550058      668.714295    10     1     0     0     7   3.357 0.000E+00 0.000E+00 0.846E+00
       193.729080       76.270517      375.330694     8     3     0     0     7   3.117 0.000E+00 0.000E+00 0.182E+01
         3.756312      113.994514      366.505533     9     4     0     0     6   3.241 0.000E+00 0.000E+00 0.226E+01
       106.424913       33.954858     1527.853811     1     0     0     0     5   1.560 0.227E+01 0.455E+01 0.000E+00
       131.024633      110.421748      159.034370    10     3     0     0     7   3.357 0.000E+00 0.000E+00 0.180E+01
        98.397389      180.574908      491.148852    18     0     0     0     5   4.080 0.227E-50 0.455E-50 0.513E-12
       170.503375      134.895786     1034.261426     1     0     0     0     4   1.560 0.227E+01 0.455E+01 0.000E+00
       140.199234        4.084596      237.410045    11     4     0     0     6   3.466 0.000E+00 0.000E+00 0.223E+01
       187.804135       88.098847      320.517775    12     2     0     0     7   3.568 0.000E+00 0.000E+00 0.135E+01
        50.483664       55.314263      342.001508    11     2     0     0     5   3.466 0.000E+00 0.000E+00 0.135E+01
        13.732802      117.550951      355.985927     6     0     0     0     7   2.830 0.227E-14 0.455E-14 0.336E-06
       138.212247      126.531508      307.138694    17     4     0     0     7   4.007 0.000E+00 0.000E+00 0.217E+01
       113.170984      198.539347       75.422456    19     2     0     0     6   4.158 0.000E+00 0.000E+00 0.135E+01
       157.756965       80.348416     1131.307887     1     0     0     0     3   1.560 0.227E+01 0.455E+01 0.000E+00
        53.583211      160.832436     1206.817017     1     0     0     0     6   1.560 0.227E+01 0.455E+01 0.000E+00
       164.514540        0.054582      184.467838    18     5     0     0     5   4.084 0.000E+00 0.000E+00 0.255E+01
       154.114390      184.525554       75.340852    13     6     0     0     7   3.664 0.000E+00 0.000E+00 0.306E+01
       131.003527      135.578536      417.679856    15     1     0     0     8   3.843 0.000E+00 0.000E+00 0.458E+01
       112.332052      124.486857      289.435989    12     4     0     0     3   3.568 0.000E+00 0.000E+00 0.221E+01
        96.218595       16.023575     1132.453556     1     0     0     0     3   1.560 0.227E+01 0.455E+01 0.000E+00
       132.133583       35.970244      458.465231    13     2     0     0     3   3.664 0.000E+00 0.000E+00 0.135E+01
        34.272584       33.482327     1350.799400     1     0     0     0     8   1.560 0.227E+01 0.455E+01 0.000E+00
       137.376661      191.591577     1037.341946    41     0     0     0     2   5.370 0.227-119 0.455-119 0.234E-14
       162.106260       26.007547      264.802995    12     1     0     0     6   3.568 0.000E+00 0.000E+00 0.846E+00
        32.823934       23.032189      293.747106     7     1     0     0     1   2.981 0.000E+00 0.000E+00 0.847E+00
       170.898369      163.056464      297.043522    11     2     0     0     3   3.466 0.000E+00 0.000E+00 0.135E+01
       193.545798      195.409524     1932.944848     1     0     0     0     5   1.560 0.227E+01 0.455E+01 0.000E+00
        61.523283       64.260821      107.500323    18     2     0     0     4   4.084 0.000E+00 0.000E+00 0.135E+01
       188.162694      131.176633      288.254493    13     4     0     0     5   3.664 0.000E+00 0.000E+00 0.220E+01
        45.405229        4.051582      284.065301     6     0     0     0     2   2.830 0.227E-14 0.455E-14 0.336E-06
       142.663830      129.976017      590.271989    23     0     0     0     1   4.430 0.227E-65 0.455E-65 0.859E-13
       145.867152      131.383207     1442.369983     1     0     0     0     8   1.560 0.227E+01 0.455E+01 0.000E+00
       159.053500       69.830128       31.437147     9     1     0     0     3   3.241 0.000E+00 0.000E+00 0.846E+00
       148.646724       11.381769      118.995798    10     3     0     0     8   3.357 0.000E+00 0.000E+00 0.180E+01
       141.007726       46.222516     1641.953997     1     0     0     0     3   1.560 0.227E+01 0.455E+01 0.000E+00
        28.858671      108.283692     2036.626769     1     0     0     0     2   1.560 0.227E+01 0.455E+01 0.000E+00
        18.077024       95.755857      327.978975    17     5     0     0     7   4.007 0.000E+00 0.000E+00 0.139E+02
       163.899657       47.470992      252.619155     8     4     0     0     7   3.117 0.000E+00 0.000E+00 0.229E+01
       182.973458       80.026475      160.941458    13     5     0     0     7   3.664 0.000E+00 0.000E+00 0.262E+01
        96.816769      112.955212     2063.875760     1     0     0     0     4   1.560 0.227E+01 0.455E+01 0.000E+00
        21.455098      170.980206      143.003419    13     1     0     0     2   3.664 0.000E+00 0.000E+00 0.596E-01
       110.532367      164.015391       40.731932     7     0     0     0     2   2.980 0.227E-17 0.455E-17 0.105E-04
        92.433881      170.491461      138.245294    13     4     0     0     3   3.664 0.000E+00 0.000E+00 0.220E+01
        91.242323      103.185768      131.290292    10     2     0     0     2   3.357 0.000E+00 0.000E+00 0.136E+01
       165.221161       84.495012      316.563376    12     1     0     0     2   3.568 0.000E+00 0.000E+00 0.846E+00
       126.635138       70.994907       58.804537    13     0     0     0     5   3.660 0.227E-35 0.455E-35 0.720E-11
       189.625262       48.658551       51.156701    14     2     0     0     1   3.756 0.000E+00 0.000E+00 0.135E+01
         9.034998       29.961261      372.519227    12     1     0     0     1   3.568 0.000E+00 0.000E+00 0.846E+00
        13.844866       53.071363       10.988686     8     0     0     0     4   3.120 0.227E-20 0.455E-20 0.483E-06
        82.658531      117.489808      437.260206    13     1     0     0     7   3.664 0.000E+00 0.000E+00 0.596E-01
        50.462968      182.691284      871.456278    34     0     0     0     1   5.050 0.227E-98 0.455E-98 0.694E-14
       115.982246      192.469510      202.267744    16     3     0     0     2   3.927 0.000E+00 0.000E+00 0.965E+01
       155.075516       51.858769     1792.904707     1     0     0     0     6   1.560 0.227E+01 0.455E+01 0.000E+00
       134.770674       31.589511      209.956311    14     4     0     0     5   3.756 0.000E+00 0.000E+00 0.219E+01
       186.506977       27.125986      560.284272    23     0     0     0     7   4.430 0.227E-65 0.455E-65 0.859E-13
       142.025835       25.090515      831.189079    14     0     0     0     6   3.760 0.227E-38 0.455E-38 0.383E-11
        29.144327       51.612086      654.601244    14     0     0     0     4   3.760 0.227E-38 0.455E-38 0.383E-11
       183.365511       87.875195       66.529253     9     3     0     0     7   3.241 0.000E+00 0.000E+00 0.181E+01
       126.757716       48.763883     2040.655331     1     0     0     0     2   1.560 0.227E+01 0.455E+01 0.000E+00
       156.156103      158.149974      228.244611    11     3     0     0     1   3.466 0.000E+00 0.000E+00 0.180E+01
        30.410817      146.189731     1258.253079     1     0     0     0     7   1.560 0.227E+01 0.455E+01 0.000E+00
        69.915281       31.162092      407.321537    11     2     0     0     6   3.466 0.000E+00 0.000E+00 0.135E+01
       167.800373      167.717694       27.241053    11     0     0     0     8   3.470 0.227E-29 0.455E-29 0.324E-10
       158.619432       76.161732      107.038533    11     3     0     0     2   3.466 0.000E+00 0.000E+00 0.180E+01
        78.005218      183.157072      213.472464     5     1     0     0     6   2.665 0.000E+00 0.000E+00 0.849E+00
       125.205182      161.449215     1369.626601     1     0     0     0     5   1.560 0.227E+01 0.455E+01 0.000E+00
       156.294016        8.339443      228.344728     6     2     0     0     4   2.832 0.000E+00 0.000E+00 0.137E+01
       119.343147       98.027318       54.225113     9     2     0     0     5   3.241 0.000E+00 0.000E+00 0.136E+01
       147.232439      155.953909      174.482297    10     3     0     0     7   3.357 0.000E+00 0.000E+00 0.180E+01
       125.251883       48.286411      660.119129    27     0     0     0     7   4.680 0.227E-77 0.455E-77 0.293E-13
       129.068781       45.942443      366.161557     8     2     0     0     3   3.117 0.000E+00 0.000E+00 0.136E+01
       117.849995       41.264010     1420.004344     1     0     0     0     4   1.560 0.227E+01 0.455E+01 0.000E+00
       154.605792      195.687701     2112.067177     1     0     0     0     8   1.560 0.227E+01 0.455E+01 0.000E+00
       116.093904       28.390559       28.726266     9     3     0     0     2   3.241 0.000E+00 0.000E+00 0.181E+01
       185.426611       31.295317      486.032669    18     1     0     0     4   4.084 0.000E+00 0.000E+00 0.845E+00
        10.605582       84.411499      697.701822    15     0     0     0     3   3.840 0.227E-41 0.455E-41 0.216E-11
       155.472320      182.582328      629.701769    20     0     0     0     6   4.230 0.227E-56 0.455E-56 0.234E-12
       156.876849       82.146448     1734.130680     1     0     0     0     8   1.560 0.227E+01 0.455E+01 0.000E+00
        80.195313       28.451130      592.027274    19     1     0     0     1   4.158 0.000E+00 0.000E+00 0.845E+00
       176.474742       57.930471      458.168568    20     4     0     0     6   4.230 0.000E+00 0.000E+00 0.216E+01
        37.403970       20.221908     1533.732603     1     0     0     0     8   1.560 0.227E+01 0.455E+01 0.000E+00
        87.842438      153.957927      569.539367    19     0     0     0     5   4.160 0.227E-53 0.455E-53 0.341E-12
        80.422664      138.339351      756.990888    16     0     0     0     8   3.930 0.227E-44 0.455E-44 0.129E-11
       149.233474      171.371095      117.226682    22     6     0     0     5   4.367 0.000E+00 0.000E+00 0.290E+01
       185.519586       83.619158       99.297485    12     1     0     0     4   3.568 0.000E+00 0.000E+00 0.846E+00
        17.145494       88.319941      474.653497    22     1     0     0     7   4.367 0.000E+00 0.000E+00 0.845E+00
       156.290046       89.501436       64.003936    10     2     0     0     4   3.357 0.000E+00 0.000E+00 0.136E+01
        12.959783      160.492750       94.339551     8     3     0     0     4   3.117 0.000E+00 0.000E+00 0.182E+01
        46.419925       25.743459      461.306305    10     0     0     0     7   3.360 0.227E-26 0.455E-26 0.793E-10
        63.585400      127.145171      101.709727    11     4     0     0     2   3.466 0.000E+00 0.000E+00 0.223E+01
         4.196435       97.266078     1550.734060     1     0     0     0     3   1.560 0.227E+01 0.455E+01 0.000E+00
        56.622336       71.264595     2117.991883     1     0     0     0     2   1.560 0.227E+01 0.455E+01 0.000E+00
        76.200416       95.303656      155.468000    12     3     0     0     1   3.568 0.000E+00 0.000E+00 0.179E+01
         1.408147      148.012451     1286.542738     1     0     0     0     3   1.560 0.227E+01 0.455E+01 0.000E+00
        54.817045      197.634320     1783.131350     1     0     0     0     2   1.560 0.227E+01 0.455E+01 0.000E+00
        53.647173      107.492386      400.707070    11     0     0     0     5   3.470 0.227E-29 0.455E-29 0.324E-10
       122.028060       64.883860     1193.314015     1     0     0     0     7   1.560 0.227E+01 0.455E+01 0.000E+00
       168.950532       25.846781      425.365814    12     1     0     0     5   3.568 0.000E+00 0.000E+00 0.846E+00
       124.106070      177.467263      339.654389     7     2     0     0     3   2.981 0.000E+00 0.000E+00 0.136E+01
       106.199210      145.446176      375.731000    11     3     0     0     8   3.466 0.000E+00 0.000E+00 0.180E+01
        74.125379      186.008205      224.895500    15     1     0     0     8   3.843 0.000E+00 0.000E+00 0.458E+01
       107.280029       69.512174      796.301420    21     0     0     0     3   4.300 0.227E-59 0.455E-59 0.163E-12
        93.024411      139.894656      625.214478    18     0     0     0     3   4.080 0.227E-50 0.455E-50 0.513E-12
       163.398537       97.397047       98.862200     8     1     0     0     1   3.117 0.000E+00 0.000E+00 0.846E+00
       140.277058      119.318535      725.001754    24     0     0     0     7   4.500 0.227E-68 0.455E-68 0.643E-13
       183.058259      157.405006      921.293093    31     0     0     0     5   4.900 0.227E-89 0.455E-89 0.122E-13
        24.010178       12.065779       94.375933    16     1     0     0     3   3.927 0.000E+00 0.000E+00 0.845E+00
       199.163015      173.442876      465.234410    12     0     0     0     6   3.570 0.227E-32 0.455E-32 0.146E-10
        63.453025      190.675142      304.142221    10     2     0     0     3   3.357 0.000E+00 0.000E+00 0.136E+01
        78.598859      167.990788      458.894882    24     1     0     0     7   4.495 0.000E+00 0.000E+00 0.845E+00
         0.656435       31.300379     1826.027478     1     0     0     0     3   1.560 0.227E+01 0.455E+01 0.000E+00
        78.912266       17.473473      338.143712    13     3     0     0     6   3.664 0.000E+00 0.000E+00 0.179E+01
       137.206159      159.188233      820.382391    22     0     0     0     8   4.370 0.227E-62 0.455E-62 0.118E-12
        14.297527      191.558534      818.868754    16     0     0     0     4   3.930 0.227E-44 0.455E-44 0.129E-11
       120.531350       69.535966      495.664905     9     1     0     0     5   3.241 0.000E+00 0.000E+00 0.846E+00
       181.948877      107.519998      257.231291     9     3     0     0     1   3.241 0.000E+00 0.000E+00 0.181E+01
        74.651841       10.524273      640.671566    20     0     0     0     7   4.230 0.227E-56 0.455E-56 0.234E-12
        57.884074      124.715457       70.313490    12     4     0     0     1   3.568 0.000E+00 0.000E+00 0.221E+01
       112.025285       29.069034     1748.209679     1     0     0     0     3   1.560 0.227E+01 0.455E+01 0.000E+00
        20.603426       68.295097      466.857276     9     0     0     0     4   3.240 0.227E-23 0.455E-23 0.225E-09
        53.338135      166.090188      341.611804     6     0     0     0     4   2.830 0.227E-14 0.455E-14 0.336E-06
        35.916494       12.756661     1198.816931     1     0     0     0     1   1.560 0.227E+01 0.455E+01 0.000E+00
       105.636755       96.246122       77.162972    12     0     0     0     7   3.570 0.227E-32 0.455E-32 0.146E-10
        83.675030       86.362751      489.752464    17     1     0     0     1   4.007 0.000E+00 0.000E+00 0.845E+00
        77.554240      125.358747     1166.442103     1     0     0     0     2   1.560 0.227E+01 0.455E+01 0.000E+00
        21.787236      148.157159      189.561989     6     2     0     0     2   2.832 0.000E+00 0.000E+00 0.137E+01
       132.724698      117.114940     1620.702122     1     0     0     0     4   1.560 0.227E+01 0.455E+01 0.000E+00
       184.491451      157.138314      320.519125    12     3     0     0     4   3.568 0.000E+00 0.000E+00 0.179E+01
        33.229912      114.915526      166.901534    14     3     0     0     8   3.756 0.000E+00 0.000E+00 0.178E+01
       116.490358       58.226885      100.210725    10     3     0     0     3   3.357 0.000E+00 0.000E+00 0.180E+01
       100.498573       41.635112      149.637204     9     5     0     0     3   3.241 0.000E+00 0.000E+00 0.275E+01
        87.289589       64.997570      464.838703    14     4     0     0     8   3.756 0.000E+00 0.000E+00 0.219E+01
        17.214158      161.105156      239.248219    10     2     0     0     1   3.357 0.000E+00 0.000E+00 0.136E+01
       164.246715      167.948890      907.820085     1     0     0     0     1   1.560 0.227E+01 0.455E+01 0.000E+00
        93.070350       90.751212      911.882230    45     0     0     0     5   5.540 0.227-131 0.455-131 0.141E-14
        94.867854       38.770102       46.299938    14     3     0     0     4   3.756 0.000E+00 0.000E+00 0.178E+01
       194.970010      180.427665      386.196369    15     1     0     0     6   3.843 0.000E+00 0.000E+00 0.458E+01
       172.909563      124.022744      340.917032    13     1     0     0     4   3.664 0.000E+00 0.000E+00 0.596E-01
        71.636003       65.352601      431.119106    18     0     0     0     2   4.080 0.227E-50 0.455E-50 0.513E-12
       156.468694       95.568496       37.862730    10     1     0     0     2   3.357 0.000E+00 0.000E+00 0.846E+00
       138.805024      167.284183     1503.869365     1     0     0     0     1   1.560 0.227E+01 0.455E+01 0.000E+00
        33.819008      185.434281      627.026582    16     0     0     0     8   3.930 0.227E-44 0.455E-44 0.129E-11
       135.710094       97.828391      111.256665    10     2     0     0     2   3.357 0.000E+00 0.000E+00 0.136E+01
       182.536515      123.660241      154.057776    12     2     0     0     5   3.568 0.000E+00 0.000E+00 0.135E+01
       188.134533       74.787424      175.262033    17     3     0     0     6   4.007 0.000E+00 0.000E+00 0.178E+01
         4.254788      135.226066      559.526675    19     0     0     0     3   4.160 0.227E-53 0.455E-53 0.341E-12
       139.698075      159.703354      387.870412     8     4     0     0     4   3.117 0.000E+00 0.000E+00 0.229E+01
       178.981017      162.215417      439.465079     6     0     0     0     6   2.830 0.227E-14 0.455E-14 0.336E-06
       158.801579      182.656621      987.605896     1     0     0     0     7   1.560 0.227E+01 0.455E+01 0.000E+00
       190.156531      107.282228     1801.275438     1     0     0     0     1   1.560 0.227E+01 0.455E+01 0.000E+00
        91.102516       27.250869      230.658806     9     1     0     0     8   3.241 0.000E+00 0.000E+00 0.846E+00
        45.035759      160.991434     1312.816457     1     0     0     0     1   1.560 0.227E+01 0.455E+01 0.000E+00
       184.077770      140.936398      585.808387    15     0     0     0     7   3.840 0.227E-41 0.455E-41 0.216E-11
       188.094322      187.147119      428.851439     8     1     0     0     1   3.117 0.000E+00 0.000E+00 0.846E+00
        48.535916      136.371285      504.700148    19     0     0     0     5   4.160 0.227E-53 0.455E-53 0.341E-12
       166.500899       84.496367      769.340898    20     0     0     0     3   4.230 0.227E-56 0.455E-56 0.234E-12
        58.369825      178.232436       63.643941     9     2     0     0     1   3.241 0.000E+00 0.000E+00 0.136E+01
       122.974962      170.229242     1536.329281     1     0     0     0     3   1.560 0.227E+01 0.455E+01 0.000E+00
        37.796010      164.756819      163.573743    11     5     0     0     7   3.466 0.000E+00 0.000E+00 0.267E+01
         2.470076        0.330357      180.536418     8     1     0     0     1   3.117 0.000E+00 0.000E+00 0.846E+00
       107.792539       50.178326      514.988442     9     0     0     0     6   3.240 0.227E-23 0.455E-23 0.225E-09
        59.942700       23.938973      303.833771    18     1     0     0     5   4.084 0.000E+00 0.000E+00 0.845E+00
         5.545140       14.653202       22.317900    10     0     0     0     8   3.360 0.227E-26 0.455E-26 0.793E-10
       163.759382      194.260116      700.347634    26     0     0     0     8   4.620 0.227E-74 0.455E-74 0.376E-13
       122.167492       39.868017      135.847786    16     2     0     0     7   3.927 0.000E+00 0.000E+00 0.135E+01
        14.356484        0.529404       92.326420     6     1     0     0     3   2.832 0.000E+00 0.000E+00 0.847E+00
        83.069466       91.154192      385.800169    10     0     0     0     1   3.360 0.227E-26 0.455E-26 0.793E-10
        81.948468       71.784479      726.114061    13     0     0     0     2   3.660 0.227E-35 0.455E-35 0.720E-11
       189.274453      144.939571      795.019819    19     0     0     0     4   4.160 0.227E-53 0.455E-53 0.341E-12
        63.514784        9.564383      426.956287     9     1     0     0     3   3.241 0.000E+00 0.000E+00 0.846E+00
        51.709778      158.184432     1406.333523     1     0     0     0     3   1.560 0.227E+01 0.455E+01 0.000E+00
       177.870505       23.881618       26.486996    14     0     0     0     8   3.760 0.227E-38 0.455E-38 0.383E-11
        88.474965       34.211840      298.612400     9     5     0     0     3   3.241 0.000E+00 0.000E+00 0.275E+01
        65.273638       47.718646       48.153904    12     2     0     0     6   3.568 0.000E+00 0.000E+00 0.135E+01
       187.921990       45.605316     1720.180270     1     0     0     0     7   1.560 0.227E+01 0.455E+01 0.000E+00
       199.208480      125.181580     1151.590721     1     0     0     0     1   1.560 0.227E+01 0.455E+01 0.000E+00
        81.740453       40.801116      619.303770    11     0     0     0     7   3.470 0.227E-29 0.455E-29 0.324E-10
       118.313144      104.423288      852.467424    32     0     0     0     1   4.950 0.227E-92 0.455E-92 0.100E-13
       122.726659       38.649775      783.797179    24     0     0     0     8   4.500 0.227E-68 0.455E-68 0.643E-13
       168.576459       46.861294     1099.279028     1     0     0     0     1   1.560 0.227E+01 0.455E+01 0.000E+00
       129.655182       26.490380      103.759805    10     2     0     0     6   3.357 0.000E+00 0.000E+00 0.136E+01
       101.630774      133.600193      274.102567    11     5     0     0     7   3.466 0.000E+00 0.000E+00 0.267E+01
        49.341693      197.601256     1279.045111     1     0     0     0     6   1.560 0.227E+01 0.455E+01 0.000E+00
       100.438024       21.806875      926.014278     1     0     0     0     4   1.560 0.227E+01 0.455E+01 0.000E+00
        62.596376      142.325975      174.362461    17     3     0     0     7   4.007 0.000E+00 0.000E+00 0.178E+01
       153.993862      105.987717      465.100181    17     0     0     0     3   4.010 0.227E-47 0.455E-47 0.796E-12
        39.214112       34.420921      130.047918    18     4     0     0     3   4.084 0.000E+00 0.000E+00 0.217E+01
        76.931506      118.525874      682.106061    20     0     0     0     6   4.230 0.227E-56 0.455E-56 0.234E-12
       102.748594      105.846956     2108.817980     1     0     0     0     2   1.560 0.227E+01 0.455E+01 0.000E+00
       156.144721       56.550525      237.821346    10     4     0     0     4   3.357 0.000E+00 0.000E+00 0.224E+01
        86.314513      142.710991     1216.289265     1     0     0     0     1   1.560 0.227E+01 0.455E+01 0.000E+00
       197.666948       80.736528      489.120152    16     0     0     0     3   3.930 0.227E-44 0.455E-44 0.129E-11
        37.395648       99.975636      587.599734    12     0     0     0     3   3.570 0.227E-32 0.455E-32 0.146E-10
        19.917710       36.945825     1436.438028     1     0     0     0     7   1.560 0.227E+01 0.455E+01 0.000E+00
        22.258180       97.809548      340.450692    13     3     0     0     4   3.664 0.000E+00 0.000E+00 0.179E+01
       157.975061      113.069400     1378.851740     1     0     0     0     7   1.560 0.227E+01 0.455E+01 0.000E+00
       116.105942        4.551717      458.572817     9     3     0     0     5   3.241 0.000E+00 0.000E+00 0.181E+01
       118.167413      169.709737      691.073765    24     0     0     0     2   4.500 0.227E-68 0.455E-68 0.643E-13
       149.523570       24.503941      234.071743    10     4     0     0     4   3.357 0.000E+00 0.000E+00 0.224E+01
       199.498014      176.036191      779.627938    12     0     0     0     6   3.570 0.227E-32 0.455E-32 0.146E-10
        76.507429      126.945405      222.564160    15     5     0     0     5   3.843 0.000E+00 0.000E+00 0.140E+02
        94.866926        2.365819       19.328712     4     0     0     0     4   2.470 0.227E-08 0.455E-08 0.709E-04
        32.189829       34.669919      305.024077     9     4     0     0     5   3.241 0.000E+00 0.000E+00 0.226E+01
       131.586887       91.666508     1872.944860     1     0     0     0     6   1.560 0.227E+01 0.455E+01 0.000E+00