ITEM: TIMESTEP
0
ITEM: NUMBER OF ATOMS
         523
ITEM: BOX BOUNDS pp pp pp
  0.0000000E+00   200.000000000000     
  0.0000000E+00   200.000000000000     
  0.0000000E+00   5000.00000000000     
ITEM: ATOMS x y z f1 f2 f3 f4 orient radius rate_mig rate_rot rate_emit
        72.935096      195.157005      282.490223     6     4     0     0     1   2.832 0.000E+00 0.000E+00 0.371E+01
       165.927880       83.647822      344.094978    16     2     0     0     7   3.927 0.000E+00 0.000E+00 0.209E+01
        14.356484        0.529404       92.326420     6     0     0     0     7   2.830 0.335E-14 0.670E-14 0.633E-06
        22.875268      105.262178     2082.217013     1     0     0     0     2   1.560 0.335E+01 0.670E+01 0.000E+00
        18.077024       95.755857      327.978975    17     2     0     0     3   4.007 0.000E+00 0.000E+00 0.209E+01
        46.419925       25.743459      461.306305    10     0     0     0     6   3.360 0.335E-26 0.670E-26 0.168E-09
        53.686581       88.143623      695.932070    19     0     0     0     2   4.160 0.335E-53 0.670E-53 0.784E-12
       170.898369      163.056464      297.043522    11     0     0     0     2   3.470 0.335E-29 0.670E-29 0.696E-10
        44.320441       51.839916      773.015850    24     0     0     0     3   4.500 0.335E-68 0.670E-68 0.152E-12
       185.653702       33.368032      162.772698     6     4     0     0     7   2.832 0.000E+00 0.000E+00 0.371E+01
         3.810753       39.846331     1695.611994     1     0     0     0     5   1.560 0.335E+01 0.670E+01 0.000E+00
        60.288187      192.398045      293.248906     7     3     0     0     2   2.981 0.000E+00 0.000E+00 0.285E+01
       100.498573       41.635112      149.637204     9     4     0     0     7   3.241 0.000E+00 0.000E+00 0.350E+01
        58.487605      198.702774      218.865639    11     5     0     0     4   3.466 0.000E+00 0.000E+00 0.413E+01
       156.156103      158.149974      228.244611    11     4     0     0     8   3.466 0.000E+00 0.000E+00 0.344E+01
       154.982131      189.888104       89.663860     8     2     0     0     1   3.117 0.000E+00 0.000E+00 0.211E+01
       149.523570       24.503941      234.071743    10     1     0     0     2   3.357 0.000E+00 0.000E+00 0.131E+01
        79.880707      149.743571      424.642667    12     2     0     0     6   3.568 0.000E+00 0.000E+00 0.209E+01
        27.426876      159.260304     1359.676036     1     0     0     0     8   1.560 0.335E+01 0.670E+01 0.000E+00
       169.600259      190.786053       58.845924     9     1     0     0     3   3.241 0.000E+00 0.000E+00 0.131E+01
       104.932499       22.111851     1257.800428     1     0     0     0     7   1.560 0.335E+01 0.670E+01 0.000E+00
        32.823934       23.032189      293.747106     7     2     0     0     4   2.981 0.000E+00 0.000E+00 0.211E+01
        33.652471      128.282407      806.545984    26     0     0     0     5   4.620 0.335E-74 0.670E-74 0.893E-13
        47.815967       75.836501      316.915706     9     2     0     0     3   3.241 0.000E+00 0.000E+00 0.210E+01
        98.237489        4.501858      325.001990     8     2     0     0     8   3.117 0.000E+00 0.000E+00 0.211E+01
       168.950532       25.846781      425.365814    12     1     0     0     1   3.568 0.000E+00 0.000E+00 0.131E+01
       196.406185       81.005835      556.198413    15     0     0     0     1   3.840 0.335E-41 0.670E-41 0.482E-11
        80.938147      102.825885     1163.495712     1     0     0     0     7   1.560 0.335E+01 0.670E+01 0.000E+00
        20.663071       86.666078     1576.834679     1     0     0     0     3   1.560 0.335E+01 0.670E+01 0.000E+00
        72.660095      132.359960      253.137131     7     1     0     0     7   2.981 0.000E+00 0.000E+00 0.131E+01
       195.731233       36.403965      129.665418     8     0     0     0     5   3.120 0.335E-20 0.670E-20 0.905E-06
       152.072785       68.217921      618.151799    21     0     0     0     6   4.300 0.335E-59 0.670E-59 0.380E-12
       121.818578       42.282754      474.555443    11     1     0     0     5   3.466 0.000E+00 0.000E+00 0.131E+01
       182.536515      123.660241      154.057776    12     2     0     0     1   3.568 0.000E+00 0.000E+00 0.209E+01
        29.151122        2.868140      960.446513    25     0     0     0     2   4.560 0.335E-71 0.670E-71 0.115E-12
        79.016203        3.171207      685.268528    21     0     0     0     6   4.300 0.335E-59 0.670E-59 0.380E-12
        98.061691      142.047210       23.025201     6     0     0     0     6   2.830 0.335E-14 0.670E-14 0.633E-06
       145.745255       82.220820     1393.037642     1     0     0     0     7   1.560 0.335E+01 0.670E+01 0.000E+00
        95.486151       81.762349      370.799259    16     1     0     0     6   3.927 0.000E+00 0.000E+00 0.131E+01
       142.663830      129.976017      590.271989    23     0     0     0     8   4.430 0.335E-65 0.670E-65 0.202E-12
       166.859212       76.596754     1831.687539     1     0     0     0     3   1.560 0.335E+01 0.670E+01 0.000E+00
       178.344722       17.868266     1107.628214     1     0     0     0     1   1.560 0.335E+01 0.670E+01 0.000E+00
        43.644571      116.036595      124.681332    13     4     0     0     2   3.664 0.000E+00 0.000E+00 0.340E+01
        85.775693       80.531238      160.166091     9     2     0     0     1   3.241 0.000E+00 0.000E+00 0.210E+01
        91.242323      103.185768      131.290292    10     4     0     0     7   3.357 0.000E+00 0.000E+00 0.347E+01
        37.367311      181.060718      811.704830    20     0     0     0     3   4.230 0.335E-56 0.670E-56 0.541E-12
       125.251883       48.286411      660.119129    27     0     0     0     2   4.680 0.335E-77 0.670E-77 0.698E-13
        94.866926        2.365819       19.328712     4     1     0     0     1   2.474 0.000E+00 0.000E+00 0.132E+01
       199.498014      176.036191      779.627938    12     1     0     0     8   3.568 0.000E+00 0.000E+00 0.131E+01
       189.625262       48.658551       51.156701    14     0     0     0     4   3.760 0.335E-38 0.670E-38 0.851E-11
       130.163536       26.041983     1507.280338     1     0     0     0     7   1.560 0.335E+01 0.670E+01 0.000E+00
       122.167492       39.868017      135.847786    16     1     0     0     6   3.927 0.000E+00 0.000E+00 0.131E+01
        39.214112       34.420921      130.047918    18     4     0     0     6   4.084 0.000E+00 0.000E+00 0.336E+01
       162.590501      133.313211     1039.009150     1     0     0     0     3   1.560 0.335E+01 0.670E+01 0.000E+00
       112.332052      124.486857      289.435989    12     3     0     0     8   3.568 0.000E+00 0.000E+00 0.277E+01
        33.949085      189.655045      289.120468     6     4     0     0     5   2.832 0.000E+00 0.000E+00 0.371E+01
        88.474965       34.211840      298.612400     9     1     0     0     5   3.241 0.000E+00 0.000E+00 0.131E+01
       188.162694      131.176633      288.254493    13     1     0     0     4   3.664 0.000E+00 0.000E+00 0.958E-01
        20.316145       14.964571      266.941194    10     2     0     0     5   3.357 0.000E+00 0.000E+00 0.210E+01
        66.581329      110.348930      239.755886     8     4     0     0     6   3.117 0.000E+00 0.000E+00 0.355E+01
       178.330438      104.087039     1136.055611     1     0     0     0     4   1.560 0.335E+01 0.670E+01 0.000E+00
        77.321833      171.910459     1208.399591     1     0     0     0     4   1.560 0.335E+01 0.670E+01 0.000E+00
       193.729080       76.270517      375.330694     8     0     0     0     5   3.120 0.335E-20 0.670E-20 0.905E-06
       134.295371      139.322942      167.019906    11     6     0     0     4   3.466 0.000E+00 0.000E+00 0.487E+01
       124.471473       44.007639      202.775747    17     1     0     0     7   4.007 0.000E+00 0.000E+00 0.131E+01
       105.430209      157.253403      351.959250    12     1     0     0     7   3.568 0.000E+00 0.000E+00 0.131E+01
       112.044343      193.867527     1141.949005     1     0     0     0     6   1.560 0.335E+01 0.670E+01 0.000E+00
        83.036206      144.939453      599.540396    15     0     0     0     7   3.840 0.335E-41 0.670E-41 0.482E-11
        35.855159       22.404303     1327.060778     1     0     0     0     1   1.560 0.335E+01 0.670E+01 0.000E+00
       137.376661      191.591577     1037.341946    41     0     0     0     2   5.370 0.335-119 0.670-119 0.580E-14
       194.970010      180.427665      386.196369    15     1     0     0     7   3.843 0.000E+00 0.000E+00 0.693E+01
       122.525432       82.015777      280.043208    15     2     0     0     3   3.843 0.000E+00 0.000E+00 0.111E+02
        74.651841       10.524273      640.671566    20     1     0     0     8   4.230 0.000E+00 0.000E+00 0.131E+01
        20.449570       12.817847     1925.031974     1     0     0     0     2   1.560 0.335E+01 0.670E+01 0.000E+00
       132.145149       38.579207       49.018579    16     1     0     0     5   3.927 0.000E+00 0.000E+00 0.131E+01
        29.094753      135.561647      133.338506     7     2     0     0     2   2.981 0.000E+00 0.000E+00 0.211E+01
       158.619432       76.161732      107.038533    11     3     0     0     8   3.466 0.000E+00 0.000E+00 0.278E+01
        87.167441      168.430487       78.865369     8     2     0     0     8   3.117 0.000E+00 0.000E+00 0.211E+01
       166.440625      155.121830     1450.282857     1     0     0     0     5   1.560 0.335E+01 0.670E+01 0.000E+00
        94.656289      139.871803      191.245201    24     3     0     0     4   4.495 0.000E+00 0.000E+00 0.274E+01
       197.666948       80.736528      489.120152    16     1     0     0     5   3.927 0.000E+00 0.000E+00 0.131E+01
       185.319821       77.874012     1660.944895     1     0     0     0     1   1.560 0.335E+01 0.670E+01 0.000E+00
        33.606396      116.196567     2041.374494     1     0     0     0     3   1.560 0.335E+01 0.670E+01 0.000E+00
       136.157686      115.145489      382.870616     6     2     0     0     6   2.832 0.000E+00 0.000E+00 0.212E+01
        16.787617       66.296862       72.458717    10     1     0     0     8   3.357 0.000E+00 0.000E+00 0.131E+01
       164.969134       57.629101       91.534164    11     1     0     0     3   3.466 0.000E+00 0.000E+00 0.131E+01
       114.225092      120.868086     2090.779532     1     0     0     0     8   1.560 0.335E+01 0.670E+01 0.000E+00
        20.603426       68.295097      466.857276     9     0     0     0     8   3.240 0.335E-23 0.670E-23 0.472E-09
       191.645150      195.307816      230.540179    16     2     0     0     4   3.927 0.000E+00 0.000E+00 0.209E+01
       160.018929       63.071690     1155.931063     1     0     0     0     6   1.560 0.335E+01 0.670E+01 0.000E+00
        59.843688      135.981897       32.455549     6     0     0     0     4   2.830 0.335E-14 0.670E-14 0.633E-06
        60.221444      146.072946       44.664971     9     1     0     0     8   3.241 0.000E+00 0.000E+00 0.131E+01
       118.971310       49.108488      360.588579    12     2     0     0     1   3.568 0.000E+00 0.000E+00 0.209E+01
       157.880213       13.190712       30.079589     8     1     0     0     1   3.117 0.000E+00 0.000E+00 0.131E+01
       167.800373      167.717694       27.241053    11     1     0     0     5   3.466 0.000E+00 0.000E+00 0.131E+01
        83.675030       86.362751      489.752464    17     1     0     0     6   4.007 0.000E+00 0.000E+00 0.131E+01
       181.948877      107.519998      257.231291     9     5     0     0     5   3.241 0.000E+00 0.000E+00 0.425E+01
       116.469202       70.550058      668.714295    10     0     0     0     1   3.360 0.335E-26 0.670E-26 0.168E-09
        86.620927      153.975224      121.417730    11     6     0     0     6   3.466 0.000E+00 0.000E+00 0.487E+01
       159.823240       40.780746     1784.991833     1     0     0     0     2   1.560 0.335E+01 0.670E+01 0.000E+00
       158.733123      142.426843       92.670934     9     5     0     0     7   3.241 0.000E+00 0.000E+00 0.425E+01
       186.506977       27.125986      560.284272    23     0     0     0     7   4.430 0.335E-65 0.670E-65 0.202E-12
       142.025835       25.090515      831.189079    14     0     0     0     6   3.760 0.335E-38 0.670E-38 0.851E-11
       154.326464       58.454915      530.595148    13     1     0     0     6   3.664 0.000E+00 0.000E+00 0.958E-01
       165.221161       84.495012      316.563376    12     4     0     0     7   3.568 0.000E+00 0.000E+00 0.342E+01
       136.253165       48.763883     2053.315930     1     0     0     0     5   1.560 0.335E+01 0.670E+01 0.000E+00
        56.665369      131.034531      433.550702    11     0     0     0     3   3.470 0.335E-29 0.670E-29 0.696E-10
        27.245667      143.024581     1264.583378     1     0     0     0     8   1.560 0.335E+01 0.670E+01 0.000E+00
        38.052992      144.469370      277.458803    16     2     0     0     5   3.927 0.000E+00 0.000E+00 0.209E+01
        63.090243        4.810164      365.906754    19     1     0     0     3   4.158 0.000E+00 0.000E+00 0.131E+01
        47.354822       84.449048      158.471204     9     4     0     0     7   3.241 0.000E+00 0.000E+00 0.350E+01
       180.066198       71.559589      147.437813     7     3     0     0     8   2.981 0.000E+00 0.000E+00 0.285E+01
       137.865780      164.614365     1356.966003     1     0     0     0     7   1.560 0.335E+01 0.670E+01 0.000E+00
         9.968392      150.849465      389.379456    15     0     0     0     8   3.840 0.335E-41 0.670E-41 0.482E-11
       158.292624       78.586338      415.084022    19     2     0     0     1   4.158 0.000E+00 0.000E+00 0.209E+01
         9.380267      179.464306      360.755873     6     2     0     0     1   2.832 0.000E+00 0.000E+00 0.212E+01
       144.341793      127.742978      244.927566     9     1     0     0     6   3.241 0.000E+00 0.000E+00 0.131E+01
       185.426611       31.295317      486.032669    18     1     0     0     5   4.084 0.000E+00 0.000E+00 0.131E+01
       103.606821       68.167782     1405.761171     1     0     0     0     7   1.560 0.335E+01 0.670E+01 0.000E+00
       156.188367      194.105126     2119.980051     1     0     0     0     7   1.560 0.335E+01 0.670E+01 0.000E+00
        72.408778       44.672031      517.991661    18     3     0     0     6   4.084 0.000E+00 0.000E+00 0.275E+01
       174.540021      182.971298      217.515010    10     2     0     0     3   3.357 0.000E+00 0.000E+00 0.210E+01
        10.605582       84.411499      697.701822    15     0     0     0     3   3.840 0.335E-41 0.670E-41 0.482E-11
       155.472320      182.582328      629.701769    20     0     0     0     6   4.230 0.335E-56 0.670E-56 0.541E-12
       177.450321       77.398724     1754.704153     1     0     0     0     8   1.560 0.335E+01 0.670E+01 0.000E+00
        24.031469       58.631028      387.606556     9     1     0     0     6   3.241 0.000E+00 0.000E+00 0.131E+01
       148.202653      198.443104       84.509234    12     0     0     0     2   3.570 0.335E-32 0.670E-32 0.319E-10
         4.169899       12.309034     1538.480328     1     0     0     0     2   1.560 0.335E+01 0.670E+01 0.000E+00
       151.642140      137.794290      276.918627     6     4     0     0     1   2.832 0.000E+00 0.000E+00 0.371E+01
        80.422664      138.339351      756.990888    16     0     0     0     8   3.930 0.335E-44 0.670E-44 0.290E-11
       115.982246      192.469510      202.267744    16     1     0     0     8   3.927 0.000E+00 0.000E+00 0.131E+01
       120.053956       52.522876      703.534843    22     1     0     0     8   4.367 0.000E+00 0.000E+00 0.131E+01
       156.294016        8.339443      228.344728     6     3     0     0     7   2.832 0.000E+00 0.000E+00 0.289E+01
       141.897536       63.343014      565.356000    13     1     0     0     3   3.664 0.000E+00 0.000E+00 0.958E-01
       156.290046       89.501436       64.003936    10     1     0     0     3   3.357 0.000E+00 0.000E+00 0.131E+01
        78.948477      186.130533      270.538431     9     0     0     0     7   3.240 0.335E-23 0.670E-23 0.472E-09
       118.756428       77.532862      163.896739    17     4     0     0     8   4.007 0.000E+00 0.000E+00 0.337E+01
       194.700986       71.944881     1572.890108     1     0     0     0     4   1.560 0.335E+01 0.670E+01 0.000E+00
        61.370061       50.691122     2132.235057     1     0     0     0     2   1.560 0.335E+01 0.670E+01 0.000E+00
        69.193054       11.089508      204.626131    19     4     0     0     3   4.158 0.000E+00 0.000E+00 0.335E+01
         9.321021      168.585923     1300.785912     1     0     0     0     4   1.560 0.335E+01 0.670E+01 0.000E+00
        48.486745        3.964619     1767.305602     1     0     0     0     5   1.560 0.335E+01 0.670E+01 0.000E+00
        19.254229       79.038506      189.797689    18     1     0     0     2   4.084 0.000E+00 0.000E+00 0.131E+01
       109.367462       52.223261     1183.818566     1     0     0     0     7   1.560 0.335E+01 0.670E+01 0.000E+00
        53.647173      107.492386      400.707070    11     0     0     0     7   3.470 0.335E-29 0.670E-29 0.696E-10
       182.339901      169.537541      304.966291    15     1     0     0     1   3.843 0.000E+00 0.000E+00 0.693E+01
        48.535916      136.371285      504.700148    19     5     0     0     5   4.158 0.000E+00 0.000E+00 0.394E+01
       105.412705      181.900153      465.141268    20     1     0     0     2   4.230 0.000E+00 0.000E+00 0.131E+01
       107.280029       69.512174      796.301420    21     0     0     0     3   4.300 0.335E-59 0.670E-59 0.380E-12
        93.024411      139.894656      625.214478    18     0     0     0     3   4.080 0.335E-50 0.670E-50 0.117E-11
        71.636003       65.352601      431.119106    18     2     0     0     1   4.084 0.000E+00 0.000E+00 0.209E+01
       140.277058      119.318535      725.001754    24     0     0     0     7   4.500 0.335E-68 0.670E-68 0.152E-12
       146.496027       50.757826       95.220335     8     5     0     0     6   3.117 0.000E+00 0.000E+00 0.435E+01
       197.314632       79.041790      128.483059     7     0     0     0     3   2.980 0.335E-17 0.670E-17 0.188E-04
       119.343147       98.027318       54.225113     9     1     0     0     7   3.241 0.000E+00 0.000E+00 0.131E+01
       195.199426      195.538805      152.875568    12     1     0     0     5   3.568 0.000E+00 0.000E+00 0.131E+01
        64.169159       44.376127       27.088228    12     1     0     0     2   3.568 0.000E+00 0.000E+00 0.131E+01
         5.404160       45.543553     1799.123706     1     0     0     0     2   1.560 0.335E+01 0.670E+01 0.000E+00
       161.856563      155.676731      536.776224    23     2     0     0     6   4.432 0.000E+00 0.000E+00 0.208E+01
        50.462968      182.691284      871.456278    34     0     0     0     1   5.050 0.335E-98 0.670E-98 0.169E-13
       137.206159      159.188233      820.382391    22     0     0     0     5   4.370 0.335E-62 0.670E-62 0.275E-12
        36.360304       69.880422      158.509075    10     0     0     0     7   3.360 0.335E-26 0.670E-26 0.168E-09
        18.190717      148.746673      336.968478     9     2     0     0     6   3.241 0.000E+00 0.000E+00 0.210E+01
       126.138569       54.533245      341.234920    10     3     0     0     5   3.357 0.000E+00 0.000E+00 0.279E+01
       146.706692      119.683645       51.726415     7     0     0     0     6   2.980 0.335E-17 0.670E-17 0.188E-04
       108.860135       25.903885     1757.705128     1     0     0     0     1   1.560 0.335E+01 0.670E+01 0.000E+00
        78.598859      167.990788      458.894882    24     2     0     0     8   4.495 0.000E+00 0.000E+00 0.208E+01
       124.121270       61.993981      212.204042    14     5     0     0     1   3.756 0.000E+00 0.000E+00 0.213E+02
        15.343022       45.990733     1184.573758     1     0     0     0     8   1.560 0.335E+01 0.670E+01 0.000E+00
        70.462996        1.567794      126.675654    12     1     0     0     3   3.568 0.000E+00 0.000E+00 0.131E+01
       175.505253      198.001789      114.025482    12     3     0     0     5   3.568 0.000E+00 0.000E+00 0.277E+01
        83.884539      128.523897     1160.111803     1     0     0     0     4   1.560 0.335E+01 0.670E+01 0.000E+00
       119.321449      132.583506      491.061640    13     2     0     0     1   3.664 0.000E+00 0.000E+00 0.209E+01
       126.394399      148.766437     1646.023319     1     0     0     0     2   1.560 0.335E+01 0.670E+01 0.000E+00
         3.383076        8.990276       94.711516    24     0     0     0     3   4.500 0.335E-68 0.670E-68 0.152E-12
       198.706249       28.854689      618.456514    26     0     0     0     6   4.620 0.335E-74 0.670E-74 0.893E-13
       187.568434       38.211364      444.540435     9     0     0     0     6   3.240 0.335E-23 0.670E-23 0.472E-09
       172.909563      124.022744      340.917032    13     4     0     0     5   3.664 0.000E+00 0.000E+00 0.340E+01
       138.212247      126.531508      307.138694    17     2     0     0     7   4.007 0.000E+00 0.000E+00 0.209E+01
        39.807883      131.272971       69.574621     8     1     0     0     8   3.117 0.000E+00 0.000E+00 0.131E+01
       157.916416      196.435237      920.480683     1     0     0     0     2   1.560 0.335E+01 0.670E+01 0.000E+00
        93.070350       90.751212      911.882230    45     0     0     0     5   5.540 0.335-131 0.670-131 0.351E-14
        76.931506      118.525874      682.106061    20     1     0     0     6   4.230 0.000E+00 0.000E+00 0.131E+01
       163.677882        1.316962      411.970771     8     0     0     0     3   3.120 0.335E-20 0.670E-20 0.905E-06
        62.596376      142.325975      174.362461    17     2     0     0     7   4.007 0.000E+00 0.000E+00 0.209E+01
       174.794023      145.135793      574.364041     7     1     0     0     7   2.981 0.000E+00 0.000E+00 0.131E+01
       133.901392      104.550800      300.260916     9     1     0     0     3   3.241 0.000E+00 0.000E+00 0.131E+01
       126.144426      167.284183     1526.025413     1     0     0     0     3   1.560 0.335E+01 0.670E+01 0.000E+00
        33.819008      185.434281      627.026582    16     0     0     0     8   3.930 0.335E-44 0.670E-44 0.290E-11
        82.658531      117.489808      437.260206    13     2     0     0     8   3.664 0.000E+00 0.000E+00 0.209E+01
        83.578519      100.506524      290.298083    11     1     0     0     4   3.466 0.000E+00 0.000E+00 0.131E+01
         7.068869      105.832722       86.135320    13     1     0     0     2   3.664 0.000E+00 0.000E+00 0.958E-01
       142.314409      191.032037       42.048257    14     1     0     0     7   3.756 0.000E+00 0.000E+00 0.131E+01
       199.163015      173.442876      465.234410    12     3     0     0     8   3.568 0.000E+00 0.000E+00 0.277E+01
        14.620965       42.030617       75.171912    17     0     0     0     5   4.010 0.335E-47 0.670E-47 0.181E-11
       149.306130      195.317219     1009.761944     1     0     0     0     3   1.560 0.335E+01 0.670E+01 0.000E+00
       199.651980      107.282228     1785.449689     1     0     0     0     4   1.560 0.335E+01 0.670E+01 0.000E+00
       167.082795      130.484526      510.113699    10     1     0     0     5   3.357 0.000E+00 0.000E+00 0.131E+01
        67.191807      138.835386     1300.155859     1     0     0     0     8   1.560 0.335E+01 0.670E+01 0.000E+00
       184.077770      140.936398      585.808387    15     0     0     0     3   3.840 0.335E-41 0.670E-41 0.482E-11
        84.381127      193.194324      395.657210    13     1     0     0     2   3.664 0.000E+00 0.000E+00 0.958E-01
       182.973458       80.026475      160.941458    13     7     0     0     6   3.664 0.000E+00 0.000E+00 0.547E+01
       166.500899       84.496367      769.340898    20     0     0     0     3   4.230 0.335E-56 0.670E-56 0.541E-12
       104.231474      128.312817       47.057942    11     0     0     0     4   3.470 0.335E-29 0.670E-29 0.696E-10
       134.052986      171.811817     1556.902754     1     0     0     0     1   1.560 0.335E+01 0.670E+01 0.000E+00
        57.884074      124.715457       70.313490    12     1     0     0     7   3.568 0.000E+00 0.000E+00 0.131E+01
       131.024633      110.421748      159.034370    10     1     0     0     1   3.357 0.000E+00 0.000E+00 0.131E+01
       110.532367      164.015391       40.731932     7     1     0     0     8   2.981 0.000E+00 0.000E+00 0.131E+01
        73.355144       49.384620      195.987254     5     2     0     0     1   2.665 0.000E+00 0.000E+00 0.214E+01
        99.904478       14.845673      103.563467    10     3     0     0     6   3.357 0.000E+00 0.000E+00 0.279E+01
       185.248997       49.818083      739.747065    20     0     0     0     4   4.230 0.335E-56 0.670E-56 0.541E-12
        85.279327      110.862333      536.933150    13     0     0     0     7   3.660 0.335E-35 0.670E-35 0.158E-10
        59.942700       23.938973      303.833771    18     5     0     0     6   4.084 0.000E+00 0.000E+00 0.395E+01
       104.256922      191.293224      419.995838    18     4     0     0     5   4.084 0.000E+00 0.000E+00 0.336E+01
        81.948468       71.784479      726.114061    13     0     0     0     2   3.660 0.335E-35 0.670E-35 0.158E-10
       192.165730      135.997317      620.823106    22     0     0     0     1   4.370 0.335E-62 0.670E-62 0.275E-12
        99.879317       42.650675      552.217052    18     2     0     0     3   4.084 0.000E+00 0.000E+00 0.209E+01
        40.631754      124.950361     1388.925200     1     0     0     0     8   1.560 0.335E+01 0.670E+01 0.000E+00
        39.553546       58.691464      282.306919     9     5     0     0     4   3.241 0.000E+00 0.000E+00 0.425E+01
       145.937555        1.583386      388.653396     6     1     0     0     8   2.832 0.000E+00 0.000E+00 0.131E+01
        52.189601       96.775709      434.766350    15     0     0     0     4   3.840 0.335E-41 0.670E-41 0.482E-11
         5.330313       40.857591     1709.102246     1     0     0     0     4   1.560 0.335E+01 0.670E+01 0.000E+00
         7.121355      142.589903     1159.503595     1     0     0     0     6   1.560 0.335E+01 0.670E+01 0.000E+00
        81.740453       40.801116      619.303770    11     0     0     0     7   3.470 0.335E-29 0.670E-29 0.696E-10
       122.726659       38.649775      783.797179    24     0     0     0     3   4.500 0.335E-68 0.670E-68 0.152E-12
       189.274453      144.939571      795.019819    19     0     0     0     4   4.160 0.335E-53 0.670E-53 0.784E-12
       198.645380       70.599917     1107.191902     1     0     0     0     2   1.560 0.335E+01 0.670E+01 0.000E+00
        40.104129      152.146018      746.090082    21     0     0     0     7   4.300 0.335E-59 0.670E-59 0.380E-12
       151.021783      152.586119      294.513082     9     4     0     0     7   3.241 0.000E+00 0.000E+00 0.350E+01
        43.011394      184.940657     1266.384512     1     0     0     0     2   1.560 0.335E+01 0.670E+01 0.000E+00
        97.272874       24.972025      910.188530     1     0     0     0     8   1.560 0.335E+01 0.670E+01 0.000E+00
        24.338822      145.890440      575.854648    15     0     0     0     8   3.840 0.335E-41 0.670E-41 0.482E-11
       129.655182       26.490380      103.759805    10     3     0     0     5   3.357 0.000E+00 0.000E+00 0.279E+01
       137.388064       42.145909      116.539994     9     4     0     0     2   3.241 0.000E+00 0.000E+00 0.350E+01
       194.953378       31.553957      120.838931    11     5     0     0     6   3.466 0.000E+00 0.000E+00 0.413E+01
       113.826618      101.099231     2085.079358     1     0     0     0     6   1.560 0.335E+01 0.670E+01 0.000E+00
       156.833165       82.166430      500.425169    12     0     0     0     7   3.570 0.335E-32 0.670E-32 0.319E-10
       100.557686      160.119314     1224.202140     1     0     0     0     4   1.560 0.335E+01 0.670E+01 0.000E+00
        13.732802      117.550951      355.985927     6     2     0     0     4   2.832 0.000E+00 0.000E+00 0.212E+01
        79.525387      166.645840       31.563814     6     0     0     0     8   2.830 0.335E-14 0.670E-14 0.633E-06
        40.491182       41.693550     1415.864555     1     0     0     0     7   1.560 0.335E+01 0.670E+01 0.000E+00
        56.129533      122.381657      155.283408     9     6     0     0     6   3.241 0.000E+00 0.000E+00 0.511E+01
       164.305361      103.573951     1391.512339     1     0     0     0     4   1.560 0.335E+01 0.670E+01 0.000E+00
       131.003527      135.578536      417.679856    15     0     0     0     6   3.840 0.335E-41 0.670E-41 0.482E-11
        32.192202      118.320390      682.922112    13     1     0     0     2   3.664 0.000E+00 0.000E+00 0.958E-01
       183.058259      157.405006      921.293093    31     1     0     0     3   4.895 0.000E+00 0.000E+00 0.131E+01
        84.213792      164.529367      768.448971    24     0     0     0     8   4.500 0.335E-68 0.670E-68 0.152E-12
        38.248607      147.009478      208.335592    12     4     0     0     1   3.568 0.000E+00 0.000E+00 0.342E+01
        72.878291        7.945426      166.329290    11     1     0     0     6   3.466 0.000E+00 0.000E+00 0.131E+01
       101.054905       65.117864      361.370915     9     2     0     0     3   3.241 0.000E+00 0.000E+00 0.210E+01
       123.674013       83.753634     1890.353183     1     0     0     0     3   1.560 0.335E+01 0.670E+01 0.000E+00