ITEM: TIMESTEP
0
ITEM: NUMBER OF ATOMS
         523
ITEM: BOX BOUNDS pp pp pp
  0.0000000E+00   200.000000000000     
  0.0000000E+00   200.000000000000     
  0.0000000E+00   5000.00000000000     
ITEM: ATOMS x y z f1 f2 f3 f4 orient radius rate_mig rate_rot rate_emit
         2.578653       69.941668     1018.915348    48     1     0     0     6   5.663 0.000E+00 0.000E+00 0.452E+01
        33.819008      185.434281      627.026582    16     1     0     0     2   3.927 0.000E+00 0.000E+00 0.452E+01
       138.248213       95.792369      529.222476    14     1     0     0     5   3.756 0.000E+00 0.000E+00 0.453E+01
        78.265387       87.853855     2077.469289     1     0     0     0     3   1.560 0.101E+02 0.201E+02 0.000E+00
        47.815967       75.836501      316.915706     9     0     0     0     4   3.240 0.101E-22 0.201E-22 0.383E-08
       159.053500       69.830128       31.437147     9     0     0     0     1   3.240 0.101E-22 0.201E-22 0.383E-08
       174.540021      182.971298      217.515010    10     0     0     0     4   3.360 0.101E-25 0.201E-25 0.143E-08
        33.055306      167.467921      316.464628    11     0     0     0     2   3.470 0.101E-28 0.201E-28 0.612E-09
       182.339901      169.537541      304.966291    15     0     0     0     4   3.840 0.101E-40 0.201E-40 0.475E-10
       156.468694       95.568496       37.862730    10     0     0     0     4   3.360 0.101E-25 0.201E-25 0.143E-08
        72.408778       44.672031      517.991661    18     1     0     0     1   4.084 0.000E+00 0.000E+00 0.452E+01
        19.254229       79.038506      189.797689    18     2     0     0     6   4.084 0.000E+00 0.000E+00 0.721E+01
       155.472320      182.582328      629.701769    20     3     0     0     4   4.230 0.000E+00 0.000E+00 0.949E+01
       104.231474      128.312817       47.057942    11     1     0     0     4   3.466 0.000E+00 0.000E+00 0.453E+01
       116.105942        4.551717      458.572817     9     2     0     0     3   3.241 0.000E+00 0.000E+00 0.727E+01
        59.436358      182.468982     1181.627366     1     0     0     0     2   1.560 0.101E+02 0.201E+02 0.000E+00
        70.462996        1.567794      126.675654    12     0     0     0     7   3.570 0.101E-31 0.201E-31 0.290E-09
        74.654327      187.007876      576.504350    21     0     0     0     1   4.300 0.101E-58 0.201E-58 0.416E-11
        56.656369      154.011464      815.380394    13     1     0     0     4   3.664 0.000E+00 0.000E+00 0.369E+00
        12.959783      160.492750       94.339551     8     0     0     0     5   3.120 0.101E-19 0.201E-19 0.540E-05
       179.753163       87.500137     1457.112087     1     0     0     0     3   1.560 0.101E+02 0.201E+02 0.000E+00
       152.197451      163.034704     1420.213935     1     0     0     0     1   1.560 0.101E+02 0.201E+02 0.000E+00
        72.935096      195.157005      282.490223     6     2     0     0     2   2.832 0.000E+00 0.000E+00 0.734E+01
       120.531350       69.535966      495.664905     9     2     0     0     5   3.241 0.000E+00 0.000E+00 0.727E+01
       196.855819      130.746666      151.344618    13     3     0     0     4   3.664 0.000E+00 0.000E+00 0.957E+01
        78.598859      167.990788      458.894882    24     1     0     0     8   4.495 0.000E+00 0.000E+00 0.452E+01
       135.710094       97.828391      111.256665    10     0     0     0     7   3.360 0.101E-25 0.201E-25 0.143E-08
        36.360304       69.880422      158.509075    10     0     0     0     6   3.360 0.101E-25 0.201E-25 0.143E-08
       154.198613      197.468013     1831.687539     1     0     0     0     3   1.560 0.101E+02 0.201E+02 0.000E+00
       194.869118       39.485084      213.927308     9     1     0     0     2   3.241 0.000E+00 0.000E+00 0.453E+01
        21.787236      148.157159      189.561989     6     0     0     0     8   2.830 0.101E-13 0.201E-13 0.381E-05
        76.230508      149.699902      269.608101    25     0     0     0     4   4.560 0.101E-70 0.201E-70 0.133E-11
        22.258180       97.809548      340.450692    13     2     0     0     2   3.664 0.000E+00 0.000E+00 0.723E+01
       146.308484       70.007799     1245.610835     1     0     0     0     2   1.560 0.101E+02 0.201E+02 0.000E+00
        59.211717       37.956619     1274.471053     1     0     0     0     1   1.560 0.101E+02 0.201E+02 0.000E+00
       131.003527      135.578536      417.679856    15     0     0     0     8   3.840 0.101E-40 0.201E-40 0.475E-10
       103.320290       45.503738      122.270463     8     0     0     0     1   3.120 0.101E-19 0.201E-19 0.540E-05
        10.330993      164.720520     1155.604049     1     0     0     0     2   1.560 0.101E+02 0.201E+02 0.000E+00
       185.426611       31.295317      486.032669    18     2     0     0     6   4.084 0.000E+00 0.000E+00 0.721E+01
       140.305097       19.239153     1352.381975     1     0     0     0     5   1.560 0.101E+02 0.201E+02 0.000E+00
       161.670184      104.117078     1810.770887     1     0     0     0     6   1.560 0.101E+02 0.201E+02 0.000E+00
        19.763779       33.728276     1381.832899     1     0     0     0     1   1.560 0.101E+02 0.201E+02 0.000E+00
       156.951282      111.389702      216.727265    19     5     0     0     2   4.158 0.000E+00 0.000E+00 0.136E+02
       137.388064       42.145909      116.539994     9     0     0     0     1   3.240 0.101E-22 0.201E-22 0.383E-08
         6.634799       20.574716      319.401105    14     1     0     0     3   3.756 0.000E+00 0.000E+00 0.453E+01
        17.145494       88.319941      474.653497    22     1     0     0     6   4.367 0.000E+00 0.000E+00 0.452E+01
        29.094753      135.561647      133.338506     7     1     0     0     2   2.981 0.000E+00 0.000E+00 0.454E+01
       149.523570       24.503941      234.071743    10     0     0     0     4   3.360 0.101E-25 0.201E-25 0.143E-08
        84.249420       51.644100      299.627423     8     1     0     0     3   3.117 0.000E+00 0.000E+00 0.453E+01
        52.189601       96.775709      434.766350    15     0     0     0     8   3.840 0.101E-40 0.201E-40 0.475E-10
        59.707499       98.342800     1557.617887     1     0     0     0     1   1.560 0.101E+02 0.201E+02 0.000E+00
        88.623267      144.174665       88.564805    12     0     0     0     5   3.570 0.101E-31 0.201E-31 0.290E-09
       129.655182       26.490380      103.759805    10     0     0     0     8   3.360 0.101E-25 0.201E-25 0.143E-08
       134.295371      139.322942      167.019906    11     0     0     0     7   3.470 0.101E-28 0.201E-28 0.612E-09
       180.066198       71.559589      147.437813     7     1     0     0     5   2.981 0.000E+00 0.000E+00 0.454E+01
        83.069466       91.154192      385.800169    10     2     0     0     5   3.357 0.000E+00 0.000E+00 0.726E+01
        83.578519      100.506524      290.298083    11     0     0     0     4   3.470 0.101E-28 0.201E-28 0.612E-09
       188.162694      131.176633      288.254493    13     2     0     0     6   3.664 0.000E+00 0.000E+00 0.723E+01
       122.726659       38.649775      783.797179    24     3     0     0     4   4.495 0.000E+00 0.000E+00 0.948E+01
         0.183798      146.811846      315.854877    15     1     0     0     2   3.843 0.000E+00 0.000E+00 0.224E+02
        76.190423       98.078161     1149.252538     1     0     0     0     8   1.560 0.101E+02 0.201E+02 0.000E+00
       122.167492       39.868017      135.847786    16     1     0     0     7   3.927 0.000E+00 0.000E+00 0.452E+01
        86.285633      164.519133      163.374767    14     0     0     0     6   3.760 0.101E-37 0.201E-37 0.817E-10
        14.297527      191.558534      818.868754    16     0     0     0     5   3.930 0.101E-43 0.201E-43 0.292E-10
         3.383076        8.990276       94.711516    24     1     0     0     7   4.495 0.000E+00 0.000E+00 0.452E+01
        91.555690      168.567916       66.232380    16     0     0     0     7   3.930 0.101E-43 0.201E-43 0.292E-10
       181.003526      131.531758     1131.072183     1     0     0     0     1   1.560 0.101E+02 0.201E+02 0.000E+00
       163.398537       97.397047       98.862200     8     0     0     0     3   3.120 0.101E-19 0.201E-19 0.540E-05
        81.193877      198.373229     1262.548152     1     0     0     0     4   1.560 0.101E+02 0.201E+02 0.000E+00
        85.048966       55.698511      337.603253    10     0     0     0     1   3.360 0.101E-25 0.201E-25 0.143E-08
       198.209488        6.560055      681.309283    23     3     0     0     4   4.432 0.000E+00 0.000E+00 0.948E+01
       163.979689      116.460209       47.705366    11     0     0     0     6   3.470 0.101E-28 0.201E-28 0.612E-09
       148.202653      198.443104       84.509234    12     0     0     0     4   3.570 0.101E-31 0.201E-31 0.290E-09
         0.094855       33.172562     1869.860614     1     0     0     0     4   1.560 0.101E+02 0.201E+02 0.000E+00
         2.283246       12.167502      790.638042    16     1     0     0     1   3.927 0.000E+00 0.000E+00 0.452E+01
        71.636003       65.352601      431.119106    18     0     0     0     2   4.080 0.101E-49 0.201E-49 0.122E-10
        99.904478       14.845673      103.563467    10     0     0     0     5   3.360 0.101E-25 0.201E-25 0.143E-08
        49.351751      199.911892      323.751254     8     0     0     0     3   3.120 0.101E-19 0.201E-19 0.540E-05
        86.406157       88.611645     1127.225958     1     0     0     0     4   1.560 0.101E+02 0.201E+02 0.000E+00
       112.332052      124.486857      289.435989    12     0     0     0     2   3.570 0.101E-31 0.201E-31 0.290E-09
       173.919202      110.405202      116.268054    12     0     0     0     5   3.570 0.101E-31 0.201E-31 0.290E-09
         8.938914      112.414090     1437.140679     1     0     0     0     7   1.560 0.101E+02 0.201E+02 0.000E+00
       188.878225        7.695133     1620.130230     1     0     0     0     3   1.560 0.101E+02 0.201E+02 0.000E+00
        54.975127       27.033315       91.402026    14     0     0     0     5   3.760 0.101E-37 0.201E-37 0.817E-10
        81.740453       40.801116      619.303770    11     0     0     0     1   3.470 0.101E-28 0.201E-28 0.612E-09
       124.471473       44.007639      202.775747    17     1     0     0     7   4.007 0.000E+00 0.000E+00 0.452E+01
       141.128864      128.780960     2130.343903     1     0     0     0     3   1.560 0.101E+02 0.201E+02 0.000E+00
       149.233474      171.371095      117.226682    22     2     0     0     3   4.367 0.000E+00 0.000E+00 0.720E+01
        59.942700       23.938973      303.833771    18     0     0     0     1   4.080 0.101E-49 0.201E-49 0.122E-10
        33.516083      194.506458      995.484159     1     0     0     0     5   1.560 0.101E+02 0.201E+02 0.000E+00
        32.192202      118.320390      682.922112    13     3     0     0     5   3.664 0.000E+00 0.000E+00 0.957E+01
       194.624268       36.268807     1048.091298     1     0     0     0     4   1.560 0.101E+02 0.201E+02 0.000E+00
       126.138569       54.533245      341.234920    10     1     0     0     4   3.357 0.000E+00 0.000E+00 0.453E+01
        65.273638       47.718646       48.153904    12     0     0     0     6   3.570 0.101E-31 0.201E-31 0.290E-09
       168.949303      179.557096      459.462520    12     2     0     0     5   3.568 0.000E+00 0.000E+00 0.723E+01
       175.505253      198.001789      114.025482    12     1     0     0     2   3.568 0.000E+00 0.000E+00 0.453E+01
        50.870349      110.164287     1111.939626     1     0     0     0     5   1.560 0.101E+02 0.201E+02 0.000E+00
       140.199234        4.084596      237.410045    11     0     0     0     4   3.470 0.101E-28 0.201E-28 0.612E-09
       141.897536       63.343014      565.356000    13     5     0     0     3   3.664 0.000E+00 0.000E+00 0.140E+02
       113.604321       66.068529      990.113975     1     0     0     0     5   1.560 0.101E+02 0.201E+02 0.000E+00
        84.213792      164.529367      768.448971    24     0     0     0     3   4.500 0.101E-67 0.201E-67 0.173E-11
       156.542273      150.372366      189.882206     9     0     0     0     8   3.240 0.101E-22 0.201E-22 0.383E-08
       147.232439      155.953909      174.482297    10     2     0     0     1   3.357 0.000E+00 0.000E+00 0.726E+01
       121.505775       77.229141      395.522477    14     0     0     0     7   3.760 0.101E-37 0.201E-37 0.817E-10
        58.214852        1.993577      279.149481     6     1     0     0     6   2.832 0.000E+00 0.000E+00 0.454E+01
        17.710694      103.979857     1618.841930     1     0     0     0     4   1.560 0.101E+02 0.201E+02 0.000E+00
       140.277058      119.318535      725.001754    24     1     0     0     5   4.495 0.000E+00 0.000E+00 0.452E+01
       160.021828      189.935562     1303.158459     1     0     0     0     8   1.560 0.101E+02 0.201E+02 0.000E+00
        21.455098      170.980206      143.003419    13     2     0     0     4   3.664 0.000E+00 0.000E+00 0.723E+01
        43.465330       94.605317      872.206734     1     0     0     0     4   1.560 0.101E+02 0.201E+02 0.000E+00
        10.229538      109.794347      161.628399    12     0     0     0     2   3.570 0.101E-31 0.201E-31 0.290E-09
       178.642297      131.002360      373.665615    11     1     0     0     8   3.466 0.000E+00 0.000E+00 0.453E+01
       166.940935      164.197369     1490.577852     1     0     0     0     3   1.560 0.101E+02 0.201E+02 0.000E+00
       198.013995      115.722236      265.876575    14     0     0     0     6   3.760 0.101E-37 0.201E-37 0.817E-10
        66.694939       91.046582      185.777667    10     0     0     0     7   3.360 0.101E-25 0.201E-25 0.143E-08
        37.367311      181.060718      811.704830    20     4     0     0     5   4.230 0.000E+00 0.000E+00 0.116E+02
       101.630774      133.600193      274.102567    11     0     0     0     6   3.470 0.101E-28 0.201E-28 0.612E-09
        30.113252      119.744862     1302.587244     1     0     0     0     7   1.560 0.101E+02 0.201E+02 0.000E+00
       194.955843        5.442919     1286.276595     1     0     0     0     5   1.560 0.101E+02 0.201E+02 0.000E+00
        29.361540      142.299375     1683.814502     1     0     0     0     4   1.560 0.101E+02 0.201E+02 0.000E+00
       172.909563      124.022744      340.917032    13     2     0     0     2   3.664 0.000E+00 0.000E+00 0.723E+01
        56.129533      122.381657      155.283408     9     1     0     0     8   3.241 0.000E+00 0.000E+00 0.453E+01
        78.948477      186.130533      270.538431     9     0     0     0     1   3.240 0.101E-22 0.201E-22 0.383E-08
       164.061132      146.421714      973.885832    44     1     0     0     2   5.502 0.000E+00 0.000E+00 0.452E+01
         1.245047       32.234184     1776.696026     1     0     0     0     7   1.560 0.101E+02 0.201E+02 0.000E+00
        79.525387      166.645840       31.563814     6     0     0     0     1   2.830 0.101E-13 0.201E-13 0.381E-05
       118.167413      169.709737      691.073765    24     1     0     0     7   4.495 0.000E+00 0.000E+00 0.452E+01
       115.168894       15.255426     1567.185432     1     0     0     0     5   1.560 0.101E+02 0.201E+02 0.000E+00
        69.915281       31.162092      407.321537    11     0     0     0     6   3.470 0.101E-28 0.201E-28 0.612E-09
        11.897631       96.102907      270.102150    14     0     0     0     7   3.760 0.101E-37 0.201E-37 0.817E-10
       183.058259      157.405006      921.293093    31     1     0     0     7   4.895 0.000E+00 0.000E+00 0.452E+01
        94.866926        2.365819       19.328712     4     0     0     0     5   2.470 0.101E-07 0.201E-07 0.598E-03
        78.005218      183.157072      213.472464     5     2     0     0     4   2.665 0.000E+00 0.000E+00 0.740E+01
         3.183738       87.720472      301.069663     8     0     0     0     4   3.120 0.101E-19 0.201E-19 0.540E-05
        58.105996       98.380489      274.114953    20     1     0     0     1   4.230 0.000E+00 0.000E+00 0.452E+01
       166.500899       84.496367      769.340898    20     0     0     0     7   4.230 0.101E-55 0.201E-55 0.584E-11
        82.658531      117.489808      437.260206    13     1     0     0     4   3.664 0.000E+00 0.000E+00 0.369E+00
        20.533618       83.983208       73.034931    10     0     0     0     5   3.360 0.101E-25 0.201E-25 0.143E-08
        26.779869       19.148146     1940.857723     1     0     0     0     4   1.560 0.101E+02 0.201E+02 0.000E+00
        94.656289      139.871803      191.245201    24     2     0     0     7   4.495 0.000E+00 0.000E+00 0.720E+01
       181.472154      110.543815     1595.244172     1     0     0     0     5   1.560 0.101E+02 0.201E+02 0.000E+00
       110.532367      164.015391       40.731932     7     0     0     0     5   2.980 0.101E-16 0.201E-16 0.992E-04
       121.818578       42.282754      474.555443    11     0     0     0     6   3.470 0.101E-28 0.201E-28 0.612E-09
        43.671943       67.242704     1155.922792     1     0     0     0     1   1.560 0.101E+02 0.201E+02 0.000E+00
         9.968392      150.849465      389.379456    15     1     0     0     6   3.843 0.000E+00 0.000E+00 0.224E+02
       146.028746       27.470077      281.148170     7     0     0     0     6   2.980 0.101E-16 0.201E-16 0.992E-04
       167.800373      167.717694       27.241053    11     0     0     0     2   3.470 0.101E-28 0.201E-28 0.612E-09
        59.843688      135.981897       32.455549     6     1     0     0     3   2.832 0.000E+00 0.000E+00 0.454E+01
       147.168263      181.149738      270.992300    10     0     0     0     1   3.360 0.101E-25 0.201E-25 0.143E-08
       121.858180       90.852696       31.862258     9     0     0     0     4   3.240 0.101E-22 0.201E-22 0.383E-08
       165.927880       83.647822      344.094978    16     0     0     0     7   3.930 0.101E-43 0.201E-43 0.292E-10
        87.115624      146.593907     2059.406973     1     0     0     0     4   1.560 0.101E+02 0.201E+02 0.000E+00
         2.862109      118.480941      758.360725    18     0     0     0     3   4.080 0.101E-49 0.201E-49 0.122E-10
         7.379329      175.715167      457.081692    19     1     0     0     7   4.158 0.000E+00 0.000E+00 0.452E+01
       142.314409      191.032037       42.048257    14     0     0     0     5   3.760 0.101E-37 0.201E-37 0.817E-10
        53.163309      111.314124       89.989475     9     0     0     0     2   3.240 0.101E-22 0.201E-22 0.383E-08
        47.869645       26.041983     1523.106086     1     0     0     0     5   1.560 0.101E+02 0.201E+02 0.000E+00
        24.754418       21.604429     2016.286856     1     0     0     0     8   1.560 0.101E+02 0.201E+02 0.000E+00
        16.787617       66.296862       72.458717    10     0     0     0     7   3.360 0.101E-25 0.201E-25 0.143E-08
        27.083587       16.609617      372.239203     9     2     0     0     7   3.241 0.000E+00 0.000E+00 0.727E+01
        73.355144       49.384620      195.987254     5     0     0     0     6   2.660 0.101E-10 0.201E-10 0.193E-03
         2.470076        0.330357      180.536418     8     0     0     0     5   3.120 0.101E-19 0.201E-19 0.540E-05
         7.068869      105.832722       86.135320    13     1     0     0     5   3.664 0.000E+00 0.000E+00 0.369E+00
        43.347867      174.956552      484.157785    23     1     0     0     5   4.432 0.000E+00 0.000E+00 0.452E+01
       154.982131      189.888104       89.663860     8     1     0     0     3   3.117 0.000E+00 0.000E+00 0.453E+01
       167.931803      150.708877     1106.871243     1     0     0     0     7   1.560 0.101E+02 0.201E+02 0.000E+00
       116.490358       58.226885      100.210725    10     0     0     0     8   3.360 0.101E-25 0.201E-25 0.143E-08
       167.599592       13.913029      255.831142     7     0     0     0     4   2.980 0.101E-16 0.201E-16 0.992E-04
       164.086616      182.162112     1224.169164     1     0     0     0     7   1.560 0.101E+02 0.201E+02 0.000E+00
       167.100723      177.618532      408.587793    12     1     0     0     4   3.568 0.000E+00 0.000E+00 0.453E+01
        61.523283       64.260821      107.500323    18     2     0     0     2   4.084 0.000E+00 0.000E+00 0.721E+01
        23.184872      139.358130     1353.992318     1     0     0     0     3   1.560 0.101E+02 0.201E+02 0.000E+00
        48.535916      136.371285      504.700148    19     1     0     0     6   4.158 0.000E+00 0.000E+00 0.452E+01
        15.943099       17.706427     1589.819955     1     0     0     0     3   1.560 0.101E+02 0.201E+02 0.000E+00
       197.314632       79.041790      128.483059     7     0     0     0     6   2.980 0.101E-16 0.201E-16 0.992E-04
       182.973458       80.026475      160.941458    13     1     0     0     6   3.664 0.000E+00 0.000E+00 0.369E+00
       120.053956       52.522876      703.534843    22     1     0     0     7   4.367 0.000E+00 0.000E+00 0.452E+01
       129.068781       45.942443      366.161557     8     1     0     0     4   3.117 0.000E+00 0.000E+00 0.453E+01
        93.024411      139.894656      625.214478    18     0     0     0     5   4.080 0.101E-49 0.201E-49 0.122E-10
       161.858857      157.536919      646.483439    26     1     0     0     7   4.617 0.000E+00 0.000E+00 0.368E+00
        43.644571      116.036595      124.681332    13     1     0     0     4   3.664 0.000E+00 0.000E+00 0.369E+00
       181.948877      107.519998      257.231291     9     0     0     0     6   3.240 0.101E-22 0.201E-22 0.383E-08
        10.605582       84.411499      697.701822    15     2     0     0     1   3.843 0.000E+00 0.000E+00 0.358E+02
       105.412705      181.900153      465.141268    20     1     0     0     2   4.230 0.000E+00 0.000E+00 0.452E+01
        90.777168       75.842761      535.626477    15     0     0     0     3   3.840 0.101E-40 0.201E-40 0.475E-10
       165.221161       84.495012      316.563376    12     0     0     0     5   3.570 0.101E-31 0.201E-31 0.290E-09
       178.167335      159.217288       40.589806     7     0     0     0     3   2.980 0.101E-16 0.201E-16 0.992E-04
        32.098209       21.321339     1153.305330     1     0     0     0     4   1.560 0.101E+02 0.201E+02 0.000E+00
        80.422664      138.339351      756.990888    16     2     0     0     7   3.927 0.000E+00 0.000E+00 0.722E+01
       194.942997       13.842474        8.725081     5     0     0     0     4   2.660 0.101E-10 0.201E-10 0.193E-03
        80.195313       28.451130      592.027274    19     3     0     0     5   4.158 0.000E+00 0.000E+00 0.949E+01
        64.975166      108.822126     1538.852884     1     0     0     0     7   1.560 0.101E+02 0.201E+02 0.000E+00
       188.134533       74.787424      175.262033    17     2     0     0     3   4.007 0.000E+00 0.000E+00 0.721E+01
        38.052992      144.469370      277.458803    16     0     0     0     3   3.930 0.101E-43 0.201E-43 0.292E-10
       139.698075      159.703354      387.870412     8     0     0     0     5   3.120 0.101E-19 0.201E-19 0.540E-05
       187.099156       25.839670      594.451228    18     0     0     0     3   4.080 0.101E-49 0.201E-49 0.122E-10
        40.419843      153.789015     1246.358187     1     0     0     0     8   1.560 0.101E+02 0.201E+02 0.000E+00
        25.765990      177.526789      582.804381    14     0     0     0     1   3.760 0.101E-37 0.201E-37 0.817E-10
        28.682362      100.261744       39.360714    18     2     0     0     1   4.084 0.000E+00 0.000E+00 0.721E+01
       184.491451      157.138314      320.519125    12     2     0     0     7   3.568 0.000E+00 0.000E+00 0.723E+01
        51.053699       95.080533      590.963479    27     2     0     0     8   4.675 0.000E+00 0.000E+00 0.720E+01
        50.483664       55.314263      342.001508    11     0     0     0     6   3.470 0.101E-28 0.201E-28 0.612E-09
        87.289589       64.997570      464.838703    14     0     0     0     5   3.760 0.101E-37 0.201E-37 0.817E-10
        92.433881      170.491461      138.245294    13     1     0     0     2   3.664 0.000E+00 0.000E+00 0.369E+00
       101.687854       86.310505     1295.065591     1     0     0     0     6   1.560 0.101E+02 0.201E+02 0.000E+00
       198.706249       28.854689      618.456514    26     3     0     0     1   4.617 0.000E+00 0.000E+00 0.946E+01
        20.240241      165.908759       62.109052    12     0     0     0     2   3.570 0.101E-31 0.201E-31 0.290E-09
        84.381127      193.194324      395.657210    13     4     0     0     6   3.664 0.000E+00 0.000E+00 0.118E+02
       119.321449      132.583506      491.061640    13     1     0     0     5   3.664 0.000E+00 0.000E+00 0.369E+00
        38.248607      147.009478      208.335592    12     0     0     0     2   3.570 0.101E-31 0.201E-31 0.290E-09
       117.314156       26.131784      435.918395    14     0     0     0     2   3.760 0.101E-37 0.201E-37 0.817E-10
        91.715633       66.152178     1571.289806     1     0     0     0     3   1.560 0.101E+02 0.201E+02 0.000E+00
       102.259066      137.264317      148.036978    12     1     0     0     3   3.568 0.000E+00 0.000E+00 0.453E+01
         5.545140       14.653202       22.317900    10     0     0     0     5   3.360 0.101E-25 0.201E-25 0.143E-08
        72.878291        7.945426      166.329290    11     1     0     0     8   3.466 0.000E+00 0.000E+00 0.453E+01
       156.294016        8.339443      228.344728     6     1     0     0     8   2.832 0.000E+00 0.000E+00 0.454E+01
       195.175145       78.858377       17.046681     9     0     0     0     5   3.240 0.101E-22 0.201E-22 0.383E-08
       147.446537      112.152005     1414.296901     1     0     0     0     8   1.560 0.101E+02 0.201E+02 0.000E+00
         9.537015       57.760284     1665.957899     1     0     0     0     2   1.560 0.101E+02 0.201E+02 0.000E+00
       154.719971       93.712585       72.348555     6     0     0     0     5   2.830 0.101E-13 0.201E-13 0.381E-05
       118.756428       77.532862      163.896739    17     0     0     0     7   4.010 0.101E-46 0.201E-46 0.186E-10
        39.807883      131.272971       69.574621     8     0     0     0     3   3.120 0.101E-19 0.201E-19 0.540E-05
       109.678911       15.041402     1240.462891     1     0     0     0     8   1.560 0.101E+02 0.201E+02 0.000E+00
        77.048260      155.468386      578.055124    14     0     0     0     4   3.760 0.101E-37 0.201E-37 0.817E-10
       100.870083      182.373031     1088.068970     1     0     0     0     5   1.560 0.101E+02 0.201E+02 0.000E+00
        87.167441      168.430487       78.865369     8     0     0     0     8   3.120 0.101E-19 0.201E-19 0.540E-05
        22.497943       52.817816     1256.670504     1     0     0     0     7   1.560 0.101E+02 0.201E+02 0.000E+00
       118.971310       49.108488      360.588579    12     0     0     0     5   3.570 0.101E-31 0.201E-31 0.290E-09
       153.394634      110.882309      235.431680     9     0     0     0     2   3.240 0.101E-22 0.201E-22 0.383E-08
        97.801170       27.101599     1140.366430     1     0     0     0     3   1.560 0.101E+02 0.201E+02 0.000E+00
       122.011297      186.061425       87.832890    10     1     0     0     8   3.357 0.000E+00 0.000E+00 0.453E+01
       113.170984      198.539347       75.422456    19     0     0     0     8   4.160 0.101E-52 0.201E-52 0.834E-11
       189.625262       48.658551       51.156701    14     0     0     0     6   3.760 0.101E-37 0.201E-37 0.817E-10
        74.953408       16.705855      123.657347     8     1     0     0     5   3.117 0.000E+00 0.000E+00 0.453E+01
        93.070350       90.751212      911.882230    45     0     0     0     8   5.540 0.101-130 0.201-130 0.470E-13
        13.908181      158.567786     1382.697423     1     0     0     0     2   1.560 0.101E+02 0.201E+02 0.000E+00
       157.880213       13.190712       30.079589     8     0     0     0     7   3.120 0.101E-19 0.201E-19 0.540E-05
        29.586195       34.912709     1179.826033     1     0     0     0     1   1.560 0.101E+02 0.201E+02 0.000E+00
       151.854268       39.104718      917.642877    31     0     0     0     7   4.900 0.101E-88 0.201E-88 0.360E-12
        42.871163      109.897611     1197.627168     1     0     0     0     6   1.560 0.101E+02 0.201E+02 0.000E+00
       110.318427       50.225113     1271.809908     1     0     0     0     8   1.560 0.101E+02 0.201E+02 0.000E+00
       132.133583       35.970244      458.465231    13     2     0     0     8   3.664 0.000E+00 0.000E+00 0.723E+01
       158.197292      191.051155     1428.525154     1     0     0     0     4   1.560 0.101E+02 0.201E+02 0.000E+00
       106.199210      145.446176      375.731000    11     2     0     0     4   3.466 0.000E+00 0.000E+00 0.725E+01
       180.928504       22.893776      498.095555    14     1     0     0     5   3.756 0.000E+00 0.000E+00 0.453E+01
        66.581329      110.348930      239.755886     8     3     0     0     2   3.117 0.000E+00 0.000E+00 0.975E+01
        20.316145       14.964571      266.941194    10     0     0     0     8   3.360 0.101E-25 0.201E-25 0.143E-08
       105.636755       96.246122       77.162972    12     0     0     0     1   3.570 0.101E-31 0.201E-31 0.290E-09
       137.786134      124.868913     1676.181414     1     0     0     0     2   1.560 0.101E+02 0.201E+02 0.000E+00
        44.510499       36.679824      216.992032     9     1     0     0     1   3.241 0.000E+00 0.000E+00 0.453E+01
       111.013415       83.753634     1991.637972     1     0     0     0     8   1.560 0.101E+02 0.201E+02 0.000E+00