ITEM: TIMESTEP
0
ITEM: NUMBER OF ATOMS
         523
ITEM: BOX BOUNDS pp pp pp
  0.0000000E+00   200.000000000000     
  0.0000000E+00   200.000000000000     
  0.0000000E+00   5000.00000000000     
ITEM: ATOMS x y z f1 f2 f3 f4 orient radius rate_mig rate_rot rate_emit
       121.858180       90.852696       31.862258     9     0     0     0     7   3.240 0.142E-22 0.285E-22 0.741E-08
       132.133583       35.970244      458.465231    13     1     0     0     3   3.664 0.000E+00 0.000E+00 0.564E+00
       103.320290       45.503738      122.270463     8     1     0     0     3   3.117 0.000E+00 0.000E+00 0.670E+01
        64.402841       53.903607     1195.651781     1     0     0     0     3   1.560 0.142E+02 0.285E+02 0.000E+00
        83.675030       86.362751      489.752464    17     0     0     0     3   4.010 0.142E-46 0.285E-46 0.387E-10
        53.163309      111.314124       89.989475     9     0     0     0     4   3.240 0.142E-22 0.285E-22 0.741E-08
       156.156103      158.149974      228.244611    11     0     0     0     5   3.470 0.142E-28 0.285E-28 0.122E-08
        69.193054       11.089508      204.626131    19     1     0     0     6   4.158 0.000E+00 0.000E+00 0.669E+01
       126.138569       54.533245      341.234920    10     0     0     0     4   3.360 0.142E-25 0.285E-25 0.280E-08
        58.214852        1.993577      279.149481     6     0     0     0     5   2.830 0.142E-13 0.285E-13 0.672E-05
        87.289589       64.997570      464.838703    14     2     0     0     2   3.756 0.000E+00 0.000E+00 0.107E+02
       148.202653      198.443104       84.509234    12     0     0     0     3   3.570 0.142E-31 0.285E-31 0.581E-09
       148.646724       11.381769      118.995798    10     0     0     0     3   3.360 0.142E-25 0.285E-25 0.280E-08
       182.339901      169.537541      304.966291    15     0     0     0     3   3.840 0.142E-40 0.285E-40 0.977E-10
       146.496027       50.757826       95.220335     8     0     0     0     2   3.120 0.142E-19 0.285E-19 0.949E-05
        81.114382       81.562780     1274.492118     1     0     0     0     4   1.560 0.142E+02 0.285E+02 0.000E+00
        94.656289      139.871803      191.245201    24     0     0     0     4   4.500 0.142E-67 0.285E-67 0.372E-11
        67.039214       19.488600      235.468423    16     1     0     0     7   3.927 0.000E+00 0.000E+00 0.669E+01
        85.048966       55.698511      337.603253    10     1     0     0     3   3.357 0.000E+00 0.000E+00 0.670E+01
        36.360304       69.880422      158.509075    10     0     0     0     7   3.360 0.142E-25 0.285E-25 0.280E-08
       141.096711      153.176897     1802.858012     1     0     0     0     6   1.560 0.142E+02 0.285E+02 0.000E+00
       141.000889      161.722267     2083.384852     1     0     0     0     7   1.560 0.142E+02 0.285E+02 0.000E+00
        52.617369      192.807912     1559.505307     1     0     0     0     6   1.560 0.142E+02 0.285E+02 0.000E+00
       197.666948       80.736528      489.120152    16     1     0     0     1   3.927 0.000E+00 0.000E+00 0.669E+01
        94.867854       38.770102       46.299938    14     0     0     0     4   3.760 0.142E-37 0.285E-37 0.167E-09
        32.189829       34.669919      305.024077     9     0     0     0     1   3.240 0.142E-22 0.285E-22 0.741E-08
       198.013995      115.722236      265.876575    14     1     0     0     3   3.756 0.000E+00 0.000E+00 0.670E+01
        27.083587       16.609617      372.239203     9     1     0     0     6   3.241 0.000E+00 0.000E+00 0.670E+01
       185.931833      142.041321     1512.733900     1     0     0     0     3   1.560 0.142E+02 0.285E+02 0.000E+00
       182.023309       37.186968      230.353054     6     0     0     0     8   2.830 0.142E-13 0.285E-13 0.672E-05
       142.025835       25.090515      831.189079    14     0     0     0     4   3.760 0.142E-37 0.285E-37 0.167E-09
        24.031469       58.631028      387.606556     9     1     0     0     2   3.241 0.000E+00 0.000E+00 0.670E+01
         9.034998       29.961261      372.519227    12     1     0     0     6   3.568 0.000E+00 0.000E+00 0.670E+01
       168.950532       25.846781      425.365814    12     2     0     0     1   3.568 0.000E+00 0.000E+00 0.107E+02
       184.223348      126.689332     1446.330245     1     0     0     0     2   1.560 0.142E+02 0.285E+02 0.000E+00
       158.619432       76.161732      107.038533    11     0     0     0     1   3.470 0.142E-28 0.285E-28 0.122E-08
       157.880213       13.190712       30.079589     8     0     0     0     4   3.120 0.142E-19 0.285E-19 0.949E-05
         1.245047      187.922089     1811.512672     1     0     0     0     6   1.560 0.142E+02 0.285E+02 0.000E+00
        59.843688      135.981897       32.455549     6     0     0     0     1   2.830 0.142E-13 0.285E-13 0.672E-05
        60.221444      146.072946       44.664971     9     1     0     0     2   3.241 0.000E+00 0.000E+00 0.670E+01
       108.922934       51.748481     1806.654994     1     0     0     0     5   1.560 0.142E+02 0.285E+02 0.000E+00
       164.514540        0.054582      184.467838    18     0     0     0     8   4.080 0.142E-49 0.285E-49 0.257E-10
         3.756312      113.994514      366.505533     9     0     0     0     1   3.240 0.142E-22 0.285E-22 0.741E-08
       120.987692       93.228463      419.160634    12     0     0     0     7   3.570 0.142E-31 0.285E-31 0.581E-09
        72.408778       44.672031      517.991661    18     4     0     0     8   4.084 0.000E+00 0.000E+00 0.172E+02
        50.483664       55.314263      342.001508    11     1     0     0     2   3.466 0.000E+00 0.000E+00 0.670E+01
       169.600259      190.786053       58.845924     9     0     0     0     2   3.240 0.142E-22 0.285E-22 0.741E-08
       102.259066      137.264317      148.036978    12     1     0     0     5   3.568 0.000E+00 0.000E+00 0.670E+01
       197.204266       37.593889      237.783320     8     0     0     0     6   3.120 0.142E-19 0.285E-19 0.949E-05
        13.732802      117.550951      355.985927     6     0     0     0     7   2.830 0.142E-13 0.285E-13 0.672E-05
        29.361540      135.969076     1652.163005     1     0     0     0     4   1.560 0.142E+02 0.285E+02 0.000E+00
        10.229538      109.794347      161.628399    12     1     0     0     4   3.568 0.000E+00 0.000E+00 0.670E+01
       180.066198       71.559589      147.437813     7     2     0     0     4   2.981 0.000E+00 0.000E+00 0.108E+02
        37.367311      181.060718      811.704830    20     2     0     0     8   4.230 0.000E+00 0.000E+00 0.107E+02
       156.542273      150.372366      189.882206     9     0     0     0     7   3.240 0.142E-22 0.285E-22 0.741E-08
       185.653702       33.368032      162.772698     6     0     0     0     2   2.830 0.142E-13 0.285E-13 0.672E-05
       112.310470      190.374464      340.845641     8     0     0     0     8   3.120 0.142E-19 0.285E-19 0.949E-05
        72.935096      195.157005      282.490223     6     0     0     0     6   2.830 0.142E-13 0.285E-13 0.672E-05
        81.948468       71.784479      726.114061    13     3     0     0     3   3.664 0.000E+00 0.000E+00 0.141E+02
       101.224175      186.258487      221.090993    14     0     0     0     7   3.760 0.142E-37 0.285E-37 0.167E-09
       106.579410      102.054590       59.121998     6     0     0     0     4   2.830 0.142E-13 0.285E-13 0.672E-05
        38.248607      147.009478      208.335592    12     4     0     0     2   3.568 0.000E+00 0.000E+00 0.175E+02
        33.652471      128.282407      806.545984    26     3     0     0     5   4.617 0.000E+00 0.000E+00 0.140E+02
       120.531350       69.535966      495.664905     9     1     0     0     5   3.241 0.000E+00 0.000E+00 0.670E+01
       186.506977       27.125986      560.284272    23     1     0     0     3   4.432 0.000E+00 0.000E+00 0.669E+01
       158.733123      142.426843       92.670934     9     0     0     0     4   3.240 0.142E-22 0.285E-22 0.741E-08
       141.930569      166.336364     1239.994912     1     0     0     0     5   1.560 0.142E+02 0.285E+02 0.000E+00
        19.108248      189.220080     1573.994207     1     0     0     0     7   1.560 0.142E+02 0.285E+02 0.000E+00
       131.535481      167.779515     1318.984207     1     0     0     0     8   1.560 0.142E+02 0.285E+02 0.000E+00
       168.245356      125.321838       79.504564     9     0     0     0     2   3.240 0.142E-22 0.285E-22 0.741E-08
       190.087851      103.231632     1110.036393     1     0     0     0     4   1.560 0.142E+02 0.285E+02 0.000E+00
        37.551451      133.159446     1487.984595     1     0     0     0     1   1.560 0.142E+02 0.285E+02 0.000E+00
        54.975127       27.033315       91.402026    14     0     0     0     3   3.760 0.142E-37 0.285E-37 0.167E-09
       189.182301       24.307455     1743.722823     1     0     0     0     6   1.560 0.142E+02 0.285E+02 0.000E+00
        72.878291        7.945426      166.329290    11     0     0     0     7   3.470 0.142E-28 0.285E-28 0.122E-08
       178.167335      159.217288       40.589806     7     0     0     0     5   2.980 0.142E-16 0.285E-16 0.168E-03
         8.988632      108.286100      307.568735    10     0     0     0     3   3.360 0.142E-25 0.285E-25 0.280E-08
       171.778902       42.118426      844.098461    12     0     0     0     6   3.570 0.142E-31 0.285E-31 0.581E-09
        34.860977      130.822886     1323.160717     1     0     0     0     3   1.560 0.142E+02 0.285E+02 0.000E+00
         9.199017      175.373997     1262.537972     1     0     0     0     4   1.560 0.142E+02 0.285E+02 0.000E+00
        25.765990      177.526789      582.804381    14     1     0     0     3   3.756 0.000E+00 0.000E+00 0.670E+01
       119.609567      196.853025     1385.206404     1     0     0     0     8   1.560 0.142E+02 0.285E+02 0.000E+00
       110.938805      139.594430     1665.692619     1     0     0     0     3   1.560 0.142E+02 0.285E+02 0.000E+00
       107.280029       69.512174      796.301420    21     0     0     0     3   4.300 0.142E-58 0.285E-58 0.886E-11
        66.581329      110.348930      239.755886     8     0     0     0     3   3.120 0.142E-19 0.285E-19 0.949E-05
       141.897536       63.343014      565.356000    13     1     0     0     3   3.664 0.000E+00 0.000E+00 0.564E+00
       160.477196       37.186812     1654.879875     1     0     0     0     1   1.560 0.142E+02 0.285E+02 0.000E+00
       112.332052      124.486857      289.435989    12     0     0     0     7   3.570 0.142E-31 0.285E-31 0.581E-09
        82.658531      117.489808      437.260206    13     0     0     0     8   3.660 0.142E-34 0.285E-34 0.300E-09
       154.326464       58.454915      530.595148    13     1     0     0     4   3.664 0.000E+00 0.000E+00 0.564E+00
       194.970010      180.427665      386.196369    15     0     0     0     7   3.840 0.142E-40 0.285E-40 0.977E-10
        21.787236      148.157159      189.561989     6     0     0     0     1   2.830 0.142E-13 0.285E-13 0.672E-05
       154.114390      184.525554       75.340852    13     0     0     0     1   3.660 0.142E-34 0.285E-34 0.300E-09
       140.199234        4.084596      237.410045    11     2     0     0     5   3.466 0.000E+00 0.000E+00 0.107E+02
        58.369825      178.232436       63.643941     9     0     0     0     8   3.240 0.142E-22 0.285E-22 0.741E-08
        76.200416       95.303656      155.468000    12     0     0     0     8   3.570 0.142E-31 0.285E-31 0.581E-09
       126.381653        8.309680     1194.156418     1     0     0     0     4   1.560 0.142E+02 0.285E+02 0.000E+00
        33.119751      187.349831      929.374994    23     1     0     0     3   4.432 0.000E+00 0.000E+00 0.669E+01
       184.077770      140.936398      585.808387    15     0     0     0     5   3.840 0.142E-40 0.285E-40 0.977E-10
       145.937555        1.583386      388.653396     6     0     0     0     4   2.830 0.142E-13 0.285E-13 0.672E-05
       129.655182       26.490380      103.759805    10     0     0     0     4   3.360 0.142E-25 0.285E-25 0.280E-08
        99.879317       42.650675      552.217052    18     1     0     0     3   4.084 0.000E+00 0.000E+00 0.669E+01
        24.010178       12.065779       94.375933    16     0     0     0     2   3.930 0.142E-43 0.285E-43 0.604E-10
       172.303838      117.543909      242.596405     8     0     0     0     2   3.120 0.142E-19 0.285E-19 0.949E-05
       194.953378       31.553957      120.838931    11     0     0     0     5   3.470 0.142E-28 0.285E-28 0.122E-08
       137.401589       35.523233     1342.452519     1     0     0     0     2   1.560 0.142E+02 0.285E+02 0.000E+00
       187.804135       88.098847      320.517775    12     2     0     0     5   3.568 0.000E+00 0.000E+00 0.107E+02
       154.389465      159.663565     1126.185377     1     0     0     0     1   1.560 0.142E+02 0.285E+02 0.000E+00
        65.967448       49.346885      650.917390    21     2     0     0     3   4.299 0.000E+00 0.000E+00 0.107E+02
        52.189601       96.775709      434.766350    15     0     0     0     7   3.840 0.142E-40 0.285E-40 0.977E-10
        79.525387      166.645840       31.563814     6     0     0     0     8   2.830 0.142E-13 0.285E-13 0.672E-05
        32.192202      118.320390      682.922112    13     1     0     0     8   3.664 0.000E+00 0.000E+00 0.564E+00
       102.405803      118.224363     1489.626192     1     0     0     0     1   1.560 0.142E+02 0.285E+02 0.000E+00
        98.237489        4.501858      325.001990     8     0     0     0     2   3.120 0.142E-19 0.285E-19 0.949E-05
       150.734745       44.339680      539.575542    12     1     0     0     5   3.568 0.000E+00 0.000E+00 0.670E+01
       180.158755      191.942447      191.116486    14     1     0     0     1   3.756 0.000E+00 0.000E+00 0.670E+01
        16.787617       66.296862       72.458717    10     0     0     0     2   3.360 0.142E-25 0.285E-25 0.280E-08
       127.345444       82.410956     1438.995242     1     0     0     0     6   1.560 0.142E+02 0.285E+02 0.000E+00
       188.162694      131.176633      288.254493    13     2     0     0     5   3.664 0.000E+00 0.000E+00 0.107E+02
       130.004313       80.588484     1988.472822     1     0     0     0     7   1.560 0.142E+02 0.285E+02 0.000E+00
        78.005218      183.157072      213.472464     5     0     0     0     1   2.660 0.142E-10 0.285E-10 0.322E-03
       122.726659       38.649775      783.797179    24     0     0     0     6   4.500 0.142E-67 0.285E-67 0.372E-11
        11.897631       96.102907      270.102150    14     1     0     0     8   3.756 0.000E+00 0.000E+00 0.670E+01
        90.777168       75.842761      535.626477    15     0     0     0     4   3.840 0.142E-40 0.285E-40 0.977E-10
        12.266967       55.242676     1814.841996     1     0     0     0     1   1.560 0.142E+02 0.285E+02 0.000E+00
        81.158029       57.720560     1120.071258     1     0     0     0     3   1.560 0.142E+02 0.285E+02 0.000E+00
       156.144721       56.550525      237.821346    10     0     0     0     3   3.360 0.142E-25 0.285E-25 0.280E-08
        18.955923      124.145058     1399.367486     1     0     0     0     4   1.560 0.142E+02 0.285E+02 0.000E+00
       156.833165       82.166430      500.425169    12     1     0     0     4   3.568 0.000E+00 0.000E+00 0.670E+01
        93.024411      139.894656      625.214478    18     2     0     0     1   4.084 0.000E+00 0.000E+00 0.107E+02
        74.125379      186.008205      224.895500    15     0     0     0     5   3.840 0.142E-40 0.285E-40 0.977E-10
         3.183738       87.720472      301.069663     8     0     0     0     2   3.120 0.142E-19 0.285E-19 0.949E-05
        63.453025      190.675142      304.142221    10     0     0     0     8   3.360 0.142E-25 0.285E-25 0.280E-08
       130.363798        4.167890      380.887033     9     0     0     0     4   3.240 0.142E-22 0.285E-22 0.741E-08
       157.066830       30.971370      286.115563    11     1     0     0     6   3.466 0.000E+00 0.000E+00 0.670E+01
       137.388064       42.145909      116.539994     9     0     0     0     2   3.240 0.142E-22 0.285E-22 0.741E-08
       100.498573       41.635112      149.637204     9     0     0     0     6   3.240 0.142E-22 0.285E-22 0.741E-08
       151.642140      137.794290      276.918627     6     0     0     0     6   2.830 0.142E-13 0.285E-13 0.672E-05
       179.889579      159.603634     1631.643393     1     0     0     0     3   1.560 0.142E+02 0.285E+02 0.000E+00
        87.302005      152.429467       92.463803    11     0     0     0     4   3.470 0.142E-28 0.285E-28 0.122E-08
       116.239563      119.067619     1231.367662     1     0     0     0     7   1.560 0.142E+02 0.285E+02 0.000E+00
       151.854268       39.104718      917.642877    31     0     0     0     7   4.900 0.142E-88 0.285E-88 0.793E-12
        37.407861       77.568170     1253.035947     1     0     0     0     7   1.560 0.142E+02 0.285E+02 0.000E+00
       160.717503      169.114909     1275.879961     1     0     0     0     8   1.560 0.142E+02 0.285E+02 0.000E+00
       192.165730      135.997317      620.823106    22     0     0     0     1   4.370 0.142E-61 0.285E-61 0.653E-11
       131.003527      135.578536      417.679856    15     0     0     0     2   3.840 0.142E-40 0.285E-40 0.977E-10
        81.740453       40.801116      619.303770    11     1     0     0     4   3.466 0.000E+00 0.000E+00 0.670E+01
       146.028746       27.470077      281.148170     7     0     0     0     7   2.980 0.142E-16 0.285E-16 0.168E-03
        71.636003       65.352601      431.119106    18     2     0     0     3   4.084 0.000E+00 0.000E+00 0.107E+02
        62.596376      142.325975      174.362461    17     1     0     0     7   4.007 0.000E+00 0.000E+00 0.669E+01
       117.314156       26.131784      435.918395    14     3     0     0     5   3.756 0.000E+00 0.000E+00 0.141E+02
       163.868634       58.857373     1431.868314     1     0     0     0     8   1.560 0.142E+02 0.285E+02 0.000E+00
       191.103471      189.720491      442.072533    13     2     0     0     1   3.664 0.000E+00 0.000E+00 0.107E+02
        86.285633      164.519133      163.374767    14     1     0     0     6   3.756 0.000E+00 0.000E+00 0.670E+01
        47.815967       75.836501      316.915706     9     2     0     0     8   3.241 0.000E+00 0.000E+00 0.108E+02
        78.598859      167.990788      458.894882    24     2     0     0     2   4.495 0.000E+00 0.000E+00 0.107E+02
       193.341207      123.230029     1482.347618     1     0     0     0     7   1.560 0.142E+02 0.285E+02 0.000E+00
        16.841544       10.526406     2008.373982     1     0     0     0     5   1.560 0.142E+02 0.285E+02 0.000E+00
       110.532367      164.015391       40.731932     7     1     0     0     6   2.981 0.000E+00 0.000E+00 0.671E+01
       124.106070      177.467263      339.654389     7     1     0     0     4   2.981 0.000E+00 0.000E+00 0.671E+01
       133.523235      128.058272      873.589551    16     0     0     0     7   3.930 0.142E-43 0.285E-43 0.604E-10
        20.533618       83.983208       73.034931    10     0     0     0     8   3.360 0.142E-25 0.285E-25 0.280E-08
       196.406185       81.005835      556.198413    15     0     0     0     2   3.840 0.142E-40 0.285E-40 0.977E-10
         2.283246       12.167502      790.638042    16     1     0     0     7   3.927 0.000E+00 0.000E+00 0.669E+01
       198.175322      128.462898       39.728176     8     0     0     0     7   3.120 0.142E-19 0.285E-19 0.949E-05
        80.422664      138.339351      756.990888    16     1     0     0     3   3.927 0.000E+00 0.000E+00 0.669E+01
        43.644571      116.036595      124.681332    13     2     0     0     2   3.664 0.000E+00 0.000E+00 0.107E+02
        78.948477      186.130533      270.538431     9     1     0     0     6   3.241 0.000E+00 0.000E+00 0.670E+01
        76.230508      149.699902      269.608101    25     0     0     0     1   4.560 0.142E-70 0.285E-70 0.287E-11
       155.472320      182.582328      629.701769    20     0     0     0     1   4.230 0.142E-55 0.285E-55 0.124E-10
       168.949303      179.557096      459.462520    12     1     0     0     1   3.568 0.000E+00 0.000E+00 0.670E+01
        90.940683       43.938209     1701.414480     1     0     0     0     2   1.560 0.142E+02 0.285E+02 0.000E+00
        23.171388      155.084804       97.864350    17     0     0     0     8   4.010 0.142E-46 0.285E-46 0.387E-10
        21.074242      101.744732     1118.706238     1     0     0     0     2   1.560 0.142E+02 0.285E+02 0.000E+00
       197.314632       79.041790      128.483059     7     1     0     0     6   2.981 0.000E+00 0.000E+00 0.671E+01
        20.316145       14.964571      266.941194    10     0     0     0     8   3.360 0.142E-25 0.285E-25 0.280E-08
       189.274453      144.939571      795.019819    19     1     0     0     8   4.158 0.000E+00 0.000E+00 0.669E+01
        73.046033      107.169114     1229.999063     1     0     0     0     7   1.560 0.142E+02 0.285E+02 0.000E+00
       183.365511       87.875195       66.529253     9     0     0     0     8   3.240 0.142E-22 0.285E-22 0.741E-08
       189.625262       48.658551       51.156701    14     0     0     0     5   3.760 0.142E-37 0.285E-37 0.167E-09
        44.510499       36.679824      216.992032     9     0     0     0     5   3.240 0.142E-22 0.285E-22 0.741E-08
       163.899657       47.470992      252.619155     8     0     0     0     7   3.120 0.142E-19 0.285E-19 0.949E-05
       122.011297      186.061425       87.832890    10     0     0     0     2   3.360 0.142E-25 0.285E-25 0.280E-08
       149.233474      171.371095      117.226682    22     0     0     0     7   4.370 0.142E-61 0.285E-61 0.653E-11
       122.525432       82.015777      280.043208    15     0     0     0     6   3.840 0.142E-40 0.285E-40 0.977E-10
        56.129533      122.381657      155.283408     9     1     0     0     2   3.241 0.000E+00 0.000E+00 0.670E+01
       178.642297      131.002360      373.665615    11     0     0     0     6   3.470 0.142E-28 0.285E-28 0.122E-08
        83.069466       91.154192      385.800169    10     2     0     0     4   3.357 0.000E+00 0.000E+00 0.107E+02
       167.800373      167.717694       27.241053    11     0     0     0     6   3.470 0.142E-28 0.285E-28 0.122E-08
       194.942997       13.842474        8.725081     5     0     0     0     4   2.660 0.142E-10 0.285E-10 0.322E-03
       140.277058      119.318535      725.001754    24     1     0     0     5   4.495 0.000E+00 0.000E+00 0.669E+01
       190.786563      164.437536     1041.378829     1     0     0     0     2   1.560 0.142E+02 0.285E+02 0.000E+00
         9.380267      179.464306      360.755873     6     0     0     0     5   2.830 0.142E-13 0.285E-13 0.672E-05
       118.167413      169.709737      691.073765    24     1     0     0     1   4.495 0.000E+00 0.000E+00 0.669E+01
       116.469202       70.550058      668.714295    10     2     0     0     7   3.357 0.000E+00 0.000E+00 0.107E+02
        70.462996        1.567794      126.675654    12     0     0     0     6   3.570 0.142E-31 0.285E-31 0.581E-09
       194.869118       39.485084      213.927308     9     1     0     0     7   3.241 0.000E+00 0.000E+00 0.670E+01
       165.927880       83.647822      344.094978    16     0     0     0     6   3.930 0.142E-43 0.285E-43 0.604E-10
        86.667963      105.151155     1073.279322     1     0     0     0     2   1.560 0.142E+02 0.285E+02 0.000E+00
       199.163015      173.442876      465.234410    12     0     0     0     2   3.570 0.142E-31 0.285E-31 0.581E-09
       192.875089       75.606069     1784.115665     1     0     0     0     4   1.560 0.142E+02 0.285E+02 0.000E+00
        18.190717      148.746673      336.968478     9     0     0     0     4   3.240 0.142E-22 0.285E-22 0.741E-08
        17.214158      161.105156      239.248219    10     0     0     0     1   3.360 0.142E-25 0.285E-25 0.280E-08
       147.168263      181.149738      270.992300    10     0     0     0     7   3.360 0.142E-25 0.285E-25 0.280E-08
        58.204911      152.571483     2072.097213     1     0     0     0     8   1.560 0.142E+02 0.285E+02 0.000E+00
       167.100723      177.618532      408.587793    12     1     0     0     8   3.568 0.000E+00 0.000E+00 0.670E+01
       149.523570       24.503941      234.071743    10     2     0     0     8   3.357 0.000E+00 0.000E+00 0.107E+02
        78.912266       17.473473      338.143712    13     1     0     0     5   3.664 0.000E+00 0.000E+00 0.564E+00
         7.379329      175.715167      457.081692    19     0     0     0     4   4.160 0.142E-52 0.285E-52 0.176E-10
       124.121270       61.993981      212.204042    14     0     0     0     8   3.760 0.142E-37 0.285E-37 0.167E-09
       104.231474      128.312817       47.057942    11     0     0     0     2   3.470 0.142E-28 0.285E-28 0.122E-08
        79.880707      149.743571      424.642667    12     0     0     0     1   3.570 0.142E-31 0.285E-31 0.581E-09
       131.526284      116.134378      460.222683    12     2     0     0     3   3.568 0.000E+00 0.000E+00 0.107E+02
        20.240241      165.908759       62.109052    12     0     0     0     8   3.570 0.142E-31 0.285E-31 0.581E-09
        20.352017       86.342668      700.363096    13     1     0     0     6   3.664 0.000E+00 0.000E+00 0.564E+00
       147.011756      187.597028      659.470206    20     1     0     0     6   4.230 0.000E+00 0.000E+00 0.669E+01
        91.242323      103.185768      131.290292    10     1     0     0     1   3.357 0.000E+00 0.000E+00 0.670E+01
        62.235578      187.184273     1675.874525     1     0     0     0     7   1.560 0.142E+02 0.285E+02 0.000E+00
        15.647586      133.934744      233.294877    17     2     0     0     2   4.007 0.000E+00 0.000E+00 0.107E+02
        29.094753      135.561647      133.338506     7     0     0     0     3   2.980 0.142E-16 0.285E-16 0.168E-03
        56.125928       94.605317      856.380986     1     0     0     0     4   1.560 0.142E+02 0.285E+02 0.000E+00
       105.636755       96.246122       77.162972    12     0     0     0     1   3.570 0.142E-31 0.285E-31 0.581E-09
         8.399359      156.312008     1223.097227     1     0     0     0     7   1.560 0.142E+02 0.285E+02 0.000E+00
        57.483120       95.859722       70.969911    10     0     0     0     3   3.360 0.142E-25 0.285E-25 0.280E-08
       170.937799      180.274766     1682.612118     1     0     0     0     4   1.560 0.142E+02 0.285E+02 0.000E+00
        88.474965       34.211840      298.612400     9     0     0     0     8   3.240 0.142E-22 0.285E-22 0.741E-08
       174.353499      172.530153     1391.727588     1     0     0     0     8   1.560 0.142E+02 0.285E+02 0.000E+00
       188.094322      187.147119      428.851439     8     1     0     0     7   3.117 0.000E+00 0.000E+00 0.670E+01
        95.486151       81.762349      370.799259    16     1     0     0     1   3.927 0.000E+00 0.000E+00 0.669E+01
       115.750741       74.696560     1707.594039     1     0     0     0     7   1.560 0.142E+02 0.285E+02 0.000E+00
        84.776346       17.674247      857.278091    24     1     0     0     1   4.495 0.000E+00 0.000E+00 0.669E+01
       167.082795      130.484526      510.113699    10     0     0     0     3   3.360 0.142E-25 0.285E-25 0.280E-08
        18.077024       95.755857      327.978975    17     3     0     0     3   4.007 0.000E+00 0.000E+00 0.141E+02
       119.343147       98.027318       54.225113     9     0     0     0     5   3.240 0.142E-22 0.285E-22 0.741E-08
       198.706249       28.854689      618.456514    26     1     0     0     8   4.617 0.000E+00 0.000E+00 0.563E+00
       182.536515      123.660241      154.057776    12     0     0     0     7   3.570 0.142E-31 0.285E-31 0.581E-09
       137.206159      159.188233      820.382391    22     0     0     0     1   4.370 0.142E-61 0.285E-61 0.653E-11
       110.365532      144.391235     1027.931126     1     0     0     0     6   1.560 0.142E+02 0.285E+02 0.000E+00
       161.858857      157.536919      646.483439    26     2     0     0     8   4.617 0.000E+00 0.000E+00 0.107E+02
       110.318427       85.041759     1205.341765     1     0     0     0     5   1.560 0.142E+02 0.285E+02 0.000E+00
        73.385416      134.491848     1144.569548     1     0     0     0     4   1.560 0.142E+02 0.285E+02 0.000E+00
       114.761103      101.063241       80.083514     9     0     0     0     4   3.240 0.142E-22 0.285E-22 0.741E-08
        62.056527       31.730842     1562.697425     1     0     0     0     8   1.560 0.142E+02 0.285E+02 0.000E+00
       116.490358       58.226885      100.210725    10     0     0     0     4   3.360 0.142E-25 0.285E-25 0.280E-08
       134.770674       31.589511      209.956311    14     1     0     0     6   3.756 0.000E+00 0.000E+00 0.670E+01
        39.214112       34.420921      130.047918    18     0     0     0     4   4.080 0.142E-49 0.285E-49 0.257E-10
         0.183798      146.811846      315.854877    15     0     0     0     1   3.840 0.142E-40 0.285E-40 0.977E-10
       101.630774      133.600193      274.102567    11     1     0     0     7   3.466 0.000E+00 0.000E+00 0.670E+01
       180.928504       22.893776      498.095555    14     2     0     0     3   3.756 0.000E+00 0.000E+00 0.107E+02
        83.578519      100.506524      290.298083    11     0     0     0     5   3.470 0.142E-28 0.285E-28 0.122E-08
        37.261025       37.105892     2359.512809     1     0     0     0     4   1.560 0.142E+02 0.285E+02 0.000E+00