ITEM: TIMESTEP
0
ITEM: NUMBER OF ATOMS
         523
ITEM: BOX BOUNDS pp pp pp
  0.0000000E+00   200.000000000000     
  0.0000000E+00   200.000000000000     
  0.0000000E+00   5000.00000000000     
ITEM: ATOMS x y z f1 f2 f3 f4 orient radius rate_mig rate_rot rate_emit
       163.677882        1.316962      411.970771     8     2     0     0     4   3.117 0.000E+00 0.000E+00 0.158E+02
        91.242323      103.185768      131.290292    10     0     0     0     4   3.360 0.200E-25 0.399E-25 0.540E-08
       137.376661      191.591577     1037.341946    41     1     0     0     5   5.374 0.000E+00 0.000E+00 0.980E+01
       156.144721       56.550525      237.821346    10     1     0     0     4   3.357 0.000E+00 0.000E+00 0.981E+01
       198.706249       28.854689      618.456514    26     1     0     0     6   4.617 0.000E+00 0.000E+00 0.852E+00
        46.419925       25.743459      461.306305    10     0     0     0     2   3.360 0.200E-25 0.399E-25 0.540E-08
       118.756428       77.532862      163.896739    17     1     0     0     2   4.007 0.000E+00 0.000E+00 0.980E+01
       182.536515      123.660241      154.057776    12     1     0     0     4   3.568 0.000E+00 0.000E+00 0.981E+01
        59.832135      196.933926      405.922872    17     0     0     0     3   4.010 0.200E-46 0.399E-46 0.791E-10
        14.297527      191.558534      818.868754    16     1     0     0     6   3.927 0.000E+00 0.000E+00 0.980E+01
        57.483120       95.859722       70.969911    10     0     0     0     7   3.360 0.200E-25 0.399E-25 0.540E-08
       154.326464       58.454915      530.595148    13     3     0     0     1   3.664 0.000E+00 0.000E+00 0.207E+02
       136.157686      115.145489      382.870616     6     1     0     0     7   2.832 0.000E+00 0.000E+00 0.983E+01
       151.854268       39.104718      917.642877    31     1     0     0     6   4.895 0.000E+00 0.000E+00 0.980E+01
       195.199426      195.538805      152.875568    12     0     0     0     4   3.570 0.200E-31 0.399E-31 0.115E-08
       160.719764      124.846918     1088.203582     1     0     0     0     1   1.560 0.200E+02 0.399E+02 0.000E+00
        31.030352      195.345383     1677.198164     1     0     0     0     8   1.560 0.200E+02 0.399E+02 0.000E+00
       116.093904       28.390559       28.726266     9     0     0     0     1   3.240 0.200E-22 0.399E-22 0.141E-07
        76.200416       95.303656      155.468000    12     0     0     0     1   3.570 0.200E-31 0.399E-31 0.115E-08
        63.514784        9.564383      426.956287     9     1     0     0     1   3.241 0.000E+00 0.000E+00 0.981E+01
        85.330429       52.827798      649.399830    23     0     0     0     5   4.430 0.200E-64 0.399E-64 0.102E-10
        16.700942      142.299375     1614.181209     1     0     0     0     6   1.560 0.200E+02 0.399E+02 0.000E+00
       116.383859        5.316557     1721.566776     1     0     0     0     6   1.560 0.200E+02 0.399E+02 0.000E+00
       174.794023      145.135793      574.364041     7     0     0     0     4   2.980 0.200E-16 0.399E-16 0.279E-03
        94.867854       38.770102       46.299938    14     0     0     0     4   3.760 0.200E-37 0.399E-37 0.334E-09
       125.251883       48.286411      660.119129    27     2     0     0     3   4.675 0.000E+00 0.000E+00 0.156E+02
       117.318408      117.789184      106.004935    11     1     0     0     5   3.466 0.000E+00 0.000E+00 0.981E+01
        87.167441      168.430487       78.865369     8     0     0     0     4   3.120 0.200E-19 0.399E-19 0.164E-04
       179.009827       60.502112     1114.784118     1     0     0     0     1   1.560 0.200E+02 0.399E+02 0.000E+00
       141.897536       63.343014      565.356000    13     2     0     0     3   3.664 0.000E+00 0.000E+00 0.157E+02
       116.490358       58.226885      100.210725    10     0     0     0     4   3.360 0.200E-25 0.399E-25 0.540E-08
        56.656369      154.011464      815.380394    13     2     0     0     4   3.664 0.000E+00 0.000E+00 0.157E+02
       142.314409      191.032037       42.048257    14     0     0     0     3   3.760 0.200E-37 0.399E-37 0.334E-09
        17.145494       88.319941      474.653497    22     0     0     0     1   4.370 0.200E-61 0.399E-61 0.137E-10
       124.121270       61.993981      212.204042    14     0     0     0     7   3.760 0.200E-37 0.399E-37 0.334E-09
         9.034998       29.961261      372.519227    12     1     0     0     4   3.568 0.000E+00 0.000E+00 0.981E+01
       170.898369      163.056464      297.043522    11     0     0     0     8   3.470 0.200E-28 0.399E-28 0.237E-08
       154.198613      184.807414     1853.843587     1     0     0     0     8   1.560 0.200E+02 0.399E+02 0.000E+00
        59.843688      135.981897       32.455549     6     0     0     0     1   2.830 0.200E-13 0.399E-13 0.117E-04
       165.131878       49.124763      984.440747     1     0     0     0     6   1.560 0.200E+02 0.399E+02 0.000E+00
       179.999243      140.539154     1426.358498     1     0     0     0     5   1.560 0.200E+02 0.399E+02 0.000E+00
       156.951282      111.389702      216.727265    19     0     0     0     5   4.160 0.200E-52 0.399E-52 0.363E-10
       164.061132      146.421714      973.885832    44     0     0     0     8   5.500 0.200-127 0.399-127 0.264E-12
        29.144327       51.612086      654.601244    14     2     0     0     1   3.756 0.000E+00 0.000E+00 0.156E+02
        33.949085      189.655045      289.120468     6     0     0     0     1   2.830 0.200E-13 0.399E-13 0.117E-04
        50.462968      182.691284      871.456278    34     0     0     0     6   5.050 0.200E-97 0.399E-97 0.102E-11
        19.254229       79.038506      189.797689    18     0     0     0     4   4.080 0.200E-49 0.399E-49 0.528E-10
        79.525387      166.645840       31.563814     6     0     0     0     1   2.830 0.200E-13 0.399E-13 0.117E-04
       189.274453      144.939571      795.019819    19     1     0     0     5   4.158 0.000E+00 0.000E+00 0.980E+01
       131.526284      116.134378      460.222683    12     0     0     0     2   3.570 0.200E-31 0.399E-31 0.115E-08
       104.256922      191.293224      419.995838    18     0     0     0     8   4.080 0.200E-49 0.399E-49 0.528E-10
        37.796010      164.756819      163.573743    11     0     0     0     5   3.470 0.200E-28 0.399E-28 0.237E-08
        36.360304       69.880422      158.509075    10     0     0     0     6   3.360 0.200E-25 0.399E-25 0.540E-08
        44.510499       36.679824      216.992032     9     0     0     0     3   3.240 0.200E-22 0.399E-22 0.141E-07
        64.169159       44.376127       27.088228    12     0     0     0     7   3.570 0.200E-31 0.399E-31 0.115E-08
        70.462996        1.567794      126.675654    12     0     0     0     3   3.570 0.200E-31 0.399E-31 0.115E-08
        99.749110      169.042280      201.817924    13     1     0     0     4   3.664 0.000E+00 0.000E+00 0.853E+00
        58.105996       98.380489      274.114953    20     0     0     0     2   4.230 0.200E-55 0.399E-55 0.257E-10
       101.630774      133.600193      274.102567    11     1     0     0     7   3.466 0.000E+00 0.000E+00 0.981E+01
        72.878291        7.945426      166.329290    11     0     0     0     5   3.470 0.200E-28 0.399E-28 0.237E-08
        32.192202      118.320390      682.922112    13     1     0     0     7   3.664 0.000E+00 0.000E+00 0.853E+00
        98.397389      180.574908      491.148852    18     0     0     0     5   4.080 0.200E-49 0.399E-49 0.528E-10
        82.740604       30.816788     1124.818983     1     0     0     0     6   1.560 0.200E+02 0.399E+02 0.000E+00
       161.348926       25.005233     1514.317113     1     0     0     0     5   1.560 0.200E+02 0.399E+02 0.000E+00
       118.313144      104.423288      852.467424    32     0     0     0     7   4.950 0.200E-91 0.399E-91 0.143E-11
       188.134533       74.787424      175.262033    17     1     0     0     8   4.007 0.000E+00 0.000E+00 0.980E+01
        64.556375       46.922439      388.368970    11     1     0     0     6   3.466 0.000E+00 0.000E+00 0.981E+01
       195.128373        9.652697     1953.518321     1     0     0     0     5   1.560 0.200E+02 0.399E+02 0.000E+00
        36.899683       14.678599     2083.580830     1     0     0     0     7   1.560 0.200E+02 0.399E+02 0.000E+00
       157.880213       13.190712       30.079589     8     0     0     0     8   3.120 0.200E-19 0.399E-19 0.164E-04
       180.066198       71.559589      147.437813     7     0     0     0     6   2.980 0.200E-16 0.399E-16 0.279E-03
       146.962123       73.723810     1673.199104     1     0     0     0     2   1.560 0.200E+02 0.399E+02 0.000E+00
       134.742549      198.787342      189.410627    13     1     0     0     2   3.664 0.000E+00 0.000E+00 0.853E+00
        65.894208       49.081823     1275.191995     1     0     0     0     3   1.560 0.200E+02 0.399E+02 0.000E+00
        81.948468       71.784479      726.114061    13     1     0     0     2   3.664 0.000E+00 0.000E+00 0.853E+00
       154.982131      189.888104       89.663860     8     0     0     0     7   3.120 0.200E-19 0.399E-19 0.164E-04
         9.968392      150.849465      389.379456    15     0     0     0     6   3.840 0.200E-40 0.399E-40 0.197E-09
       183.058259      157.405006      921.293093    31     0     0     0     8   4.900 0.200E-88 0.399E-88 0.171E-11
       169.816755       34.032300     1249.958339     1     0     0     0     3   1.560 0.200E+02 0.399E+02 0.000E+00
        85.279327      110.862333      536.933150    13     1     0     0     5   3.664 0.000E+00 0.000E+00 0.853E+00
       138.212247      126.531508      307.138694    17     0     0     0     7   4.010 0.200E-46 0.399E-46 0.791E-10
        71.305466       45.519133     1573.669530     1     0     0     0     3   1.560 0.200E+02 0.399E+02 0.000E+00
       125.923707      112.296107     1555.825044     1     0     0     0     4   1.560 0.200E+02 0.399E+02 0.000E+00
        64.402841       63.399056     1157.669986     1     0     0     0     7   1.560 0.200E+02 0.399E+02 0.000E+00
        94.656289      139.871803      191.245201    24     0     0     0     4   4.500 0.200E-67 0.399E-67 0.786E-11
        53.163309      111.314124       89.989475     9     1     0     0     4   3.241 0.000E+00 0.000E+00 0.981E+01
       138.830491      135.662986     1696.718969     1     0     0     0     5   1.560 0.200E+02 0.399E+02 0.000E+00
       167.599592       13.913029      255.831142     7     1     0     0     6   2.981 0.000E+00 0.000E+00 0.983E+01
        76.931506      118.525874      682.106061    20     0     0     0     8   4.230 0.200E-55 0.399E-55 0.257E-10
       131.024633      110.421748      159.034370    10     0     0     0     8   3.360 0.200E-25 0.399E-25 0.540E-08
        87.842438      153.957927      569.539367    19     1     0     0     5   4.158 0.000E+00 0.000E+00 0.980E+01
        53.338135      166.090188      341.611804     6     1     0     0     5   2.832 0.000E+00 0.000E+00 0.983E+01
       153.993862      105.987717      465.100181    17     0     0     0     3   4.010 0.200E-46 0.399E-46 0.791E-10
       178.642297      131.002360      373.665615    11     0     0     0     1   3.470 0.200E-28 0.399E-28 0.237E-08
       153.449567       24.285227     1452.263776     1     0     0     0     3   1.560 0.200E+02 0.399E+02 0.000E+00
        98.237489        4.501858      325.001990     8     0     0     0     4   3.120 0.200E-19 0.399E-19 0.164E-04
       197.777273       71.990429     1154.340217     1     0     0     0     5   1.560 0.200E+02 0.399E+02 0.000E+00
       105.430209      157.253403      351.959250    12     0     0     0     5   3.570 0.200E-31 0.399E-31 0.115E-08
       164.514540        0.054582      184.467838    18     0     0     0     3   4.080 0.200E-49 0.399E-49 0.528E-10
        22.258180       97.809548      340.450692    13     2     0     0     2   3.664 0.000E+00 0.000E+00 0.157E+02
        86.620927      153.975224      121.417730    11     0     0     0     7   3.470 0.200E-28 0.399E-28 0.237E-08
       167.800373      167.717694       27.241053    11     0     0     0     3   3.470 0.200E-28 0.399E-28 0.237E-08
       135.710094       97.828391      111.256665    10     0     0     0     4   3.360 0.200E-25 0.399E-25 0.540E-08
        16.787617       66.296862       72.458717    10     0     0     0     7   3.360 0.200E-25 0.399E-25 0.540E-08
        99.879317       42.650675      552.217052    18     2     0     0     8   4.084 0.000E+00 0.000E+00 0.156E+02
        89.027256       51.493859     1228.597448     1     0     0     0     2   1.560 0.200E+02 0.399E+02 0.000E+00
       137.388064       42.145909      116.539994     9     0     0     0     7   3.240 0.200E-22 0.399E-22 0.141E-07
       119.321449      132.583506      491.061640    13     1     0     0     6   3.664 0.000E+00 0.000E+00 0.853E+00
         5.545140       14.653202       22.317900    10     0     0     0     4   3.360 0.200E-25 0.399E-25 0.540E-08
       122.525432       82.015777      280.043208    15     0     0     0     8   3.840 0.200E-40 0.399E-40 0.197E-09
       122.011297      186.061425       87.832890    10     0     0     0     8   3.360 0.200E-25 0.399E-25 0.540E-08
        76.230508      149.699902      269.608101    25     0     0     0     6   4.560 0.200E-70 0.399E-70 0.608E-11
        33.819008      185.434281      627.026582    16     2     0     0     1   3.927 0.000E+00 0.000E+00 0.156E+02
       194.942997       13.842474        8.725081     5     0     0     0     4   2.660 0.200E-10 0.399E-10 0.531E-03
        32.189829       34.669919      305.024077     9     0     0     0     4   3.240 0.200E-22 0.399E-22 0.141E-07
       126.635138       70.994907       58.804537    13     1     0     0     6   3.664 0.000E+00 0.000E+00 0.853E+00
       163.811121       40.794576      360.037234    10     0     0     0     8   3.360 0.200E-25 0.399E-25 0.540E-08
       134.770674       31.589511      209.956311    14     2     0     0     4   3.756 0.000E+00 0.000E+00 0.156E+02
        79.937502       73.020575      210.341197    21     0     0     0     4   4.300 0.200E-58 0.399E-58 0.185E-10
        89.106751      168.304307     1311.607972     1     0     0     0     4   1.560 0.200E+02 0.399E+02 0.000E+00
        58.487605      198.702774      218.865639    11     0     0     0     3   3.470 0.200E-28 0.399E-28 0.237E-08
       152.072785       68.217921      618.151799    21     1     0     0     2   4.299 0.000E+00 0.000E+00 0.980E+01
       169.600259      190.786053       58.845924     9     0     0     0     5   3.240 0.200E-22 0.399E-22 0.141E-07
       171.301235       13.325626      727.615671    19     1     0     0     3   4.158 0.000E+00 0.000E+00 0.980E+01
        72.460914       52.807657     1800.434648     1     0     0     0     6   1.560 0.200E+02 0.399E+02 0.000E+00
       121.858180       90.852696       31.862258     9     0     0     0     3   3.240 0.200E-22 0.399E-22 0.141E-07
       122.847730      134.822810       83.015571    11     0     0     0     7   3.470 0.200E-28 0.399E-28 0.237E-08
        98.342418       44.627638     1668.029669     1     0     0     0     2   1.560 0.200E+02 0.399E+02 0.000E+00
       167.082795      130.484526      510.113699    10     0     0     0     8   3.360 0.200E-25 0.399E-25 0.540E-08
       181.948877      107.519998      257.231291     9     0     0     0     7   3.240 0.200E-22 0.399E-22 0.141E-07
       181.520875       29.850086      287.197145    14     0     0     0     3   3.760 0.200E-37 0.399E-37 0.334E-09
        27.083587       16.609617      372.239203     9     1     0     0     5   3.241 0.000E+00 0.000E+00 0.981E+01
        39.553546       58.691464      282.306919     9     1     0     0     2   3.241 0.000E+00 0.000E+00 0.981E+01
       130.363798        4.167890      380.887033     9     2     0     0     1   3.241 0.000E+00 0.000E+00 0.157E+02
       156.156103      158.149974      228.244611    11     0     0     0     6   3.470 0.200E-28 0.399E-28 0.237E-08
        74.651841       10.524273      640.671566    20     1     0     0     3   4.230 0.000E+00 0.000E+00 0.980E+01
       171.778902       42.118426      844.098461    12     0     0     0     7   3.570 0.200E-31 0.399E-31 0.115E-08
         2.283246       12.167502      790.638042    16     0     0     0     6   3.930 0.200E-43 0.399E-43 0.123E-09
        39.936695      173.764833     2000.227548     1     0     0     0     3   1.560 0.200E+02 0.399E+02 0.000E+00
       185.426611       31.295317      486.032669    18     1     0     0     5   4.084 0.000E+00 0.000E+00 0.980E+01
         9.492464      187.189827     1228.654450     1     0     0     0     4   1.560 0.200E+02 0.399E+02 0.000E+00
        14.620965       42.030617       75.171912    17     0     0     0     6   4.010 0.200E-46 0.399E-46 0.791E-10
        87.302005      152.429467       92.463803    11     0     0     0     4   3.470 0.200E-28 0.399E-28 0.237E-08
        32.043897      169.069290     1523.106086     1     0     0     0     4   1.560 0.200E+02 0.399E+02 0.000E+00
        50.483664       55.314263      342.001508    11     0     0     0     7   3.470 0.200E-28 0.399E-28 0.237E-08
       126.138569       54.533245      341.234920    10     0     0     0     7   3.360 0.200E-25 0.399E-25 0.540E-08
        82.658531      117.489808      437.260206    13     1     0     0     6   3.664 0.000E+00 0.000E+00 0.853E+00
       150.734745       44.339680      539.575542    12     1     0     0     7   3.568 0.000E+00 0.000E+00 0.981E+01
       118.971310       49.108488      360.588579    12     0     0     0     8   3.570 0.200E-31 0.399E-31 0.115E-08
        23.171388      155.084804       97.864350    17     0     0     0     3   4.010 0.200E-46 0.399E-46 0.791E-10
         7.379329      175.715167      457.081692    19     1     0     0     5   4.158 0.000E+00 0.000E+00 0.980E+01
       185.248997       49.818083      739.747065    20     0     0     0     3   4.230 0.200E-55 0.399E-55 0.257E-10
       178.981017      162.215417      439.465079     6     0     0     0     3   2.830 0.200E-13 0.399E-13 0.117E-04
       197.204266       37.593889      237.783320     8     0     0     0     4   3.120 0.200E-19 0.399E-19 0.164E-04
        47.815967       75.836501      316.915706     9     0     0     0     7   3.240 0.200E-22 0.399E-22 0.141E-07
       180.158755      191.942447      191.116486    14     1     0     0     6   3.756 0.000E+00 0.000E+00 0.981E+01
       189.039327       22.454151     1534.429837     1     0     0     0     6   1.560 0.200E+02 0.399E+02 0.000E+00
       194.381974       70.739379     1768.673199     1     0     0     0     8   1.560 0.200E+02 0.399E+02 0.000E+00
       167.100723      177.618532      408.587793    12     1     0     0     4   3.568 0.000E+00 0.000E+00 0.981E+01
        84.776346       17.674247      857.278091    24     0     0     0     5   4.500 0.200E-67 0.399E-67 0.786E-11
        78.912266       17.473473      338.143712    13     1     0     0     4   3.664 0.000E+00 0.000E+00 0.853E+00
       123.896019       60.025816       67.631162     8     0     0     0     3   3.120 0.200E-19 0.399E-19 0.164E-04
       131.003527      135.578536      417.679856    15     0     0     0     8   3.840 0.200E-40 0.399E-40 0.197E-09
       197.473397      165.572987      220.150275    13     0     0     0     4   3.660 0.200E-34 0.399E-34 0.596E-09
        74.125379      186.008205      224.895500    15     0     0     0     8   3.840 0.200E-40 0.399E-40 0.197E-09
       168.949303      179.557096      459.462520    12     1     0     0     7   3.568 0.000E+00 0.000E+00 0.981E+01
       153.394634      110.882309      235.431680     9     0     0     0     3   3.240 0.200E-22 0.399E-22 0.141E-07
       196.950773      178.570311      457.167124    11     1     0     0     6   3.466 0.000E+00 0.000E+00 0.981E+01
       168.245356      125.321838       79.504564     9     0     0     0     5   3.240 0.200E-22 0.399E-22 0.141E-07
       188.162694      131.176633      288.254493    13     0     0     0     7   3.660 0.200E-34 0.399E-34 0.596E-09
       124.106070      177.467263      339.654389     7     0     0     0     4   2.980 0.200E-16 0.399E-16 0.279E-03
        30.725357       45.543553     1966.876637     1     0     0     0     3   1.560 0.200E+02 0.399E+02 0.000E+00
       191.647004      106.957208       41.023411    14     0     0     0     8   3.760 0.200E-37 0.399E-37 0.334E-09
       190.684614      172.435448      609.646305    15     0     0     0     8   3.840 0.200E-40 0.399E-40 0.197E-09
       147.011756      187.597028      659.470206    20     0     0     0     5   4.230 0.200E-55 0.399E-55 0.257E-10
       133.901392      104.550800      300.260916     9     0     0     0     5   3.240 0.200E-22 0.399E-22 0.141E-07
        20.352017       86.342668      700.363096    13     2     0     0     1   3.664 0.000E+00 0.000E+00 0.157E+02
       149.233474      171.371095      117.226682    22     1     0     0     1   4.367 0.000E+00 0.000E+00 0.980E+01
        29.151122        2.868140      960.446513    25     1     0     0     8   4.557 0.000E+00 0.000E+00 0.980E+01
       194.953378       31.553957      120.838931    11     0     0     0     2   3.470 0.200E-28 0.399E-28 0.237E-08
        74.953408       16.705855      123.657347     8     0     0     0     7   3.120 0.200E-19 0.399E-19 0.164E-04
        84.213792      164.529367      768.448971    24     1     0     0     3   4.495 0.000E+00 0.000E+00 0.980E+01
       113.170984      198.539347       75.422456    19     0     0     0     7   4.160 0.200E-52 0.399E-52 0.363E-10
       156.468694       95.568496       37.862730    10     0     0     0     3   3.360 0.200E-25 0.399E-25 0.540E-08
        45.405229        4.051582      284.065301     6     1     0     0     7   2.832 0.000E+00 0.000E+00 0.983E+01
        99.904478       14.845673      103.563467    10     0     0     0     6   3.360 0.200E-25 0.399E-25 0.540E-08
       165.927880       83.647822      344.094978    16     0     0     0     2   3.930 0.200E-43 0.399E-43 0.123E-09
       192.165730      135.997317      620.823106    22     1     0     0     7   4.367 0.000E+00 0.000E+00 0.980E+01
        42.085409       15.425974      513.798196    13     3     0     0     5   3.664 0.000E+00 0.000E+00 0.207E+02
        85.775693       80.531238      160.166091     9     0     0     0     1   3.240 0.200E-22 0.399E-22 0.141E-07
       197.314632       79.041790      128.483059     7     0     0     0     1   2.980 0.200E-16 0.399E-16 0.279E-03
        84.381127      193.194324      395.657210    13     1     0     0     3   3.664 0.000E+00 0.000E+00 0.853E+00
        37.395648       99.975636      587.599734    12     2     0     0     5   3.568 0.000E+00 0.000E+00 0.157E+02
       124.471473       44.007639      202.775747    17     1     0     0     3   4.007 0.000E+00 0.000E+00 0.980E+01
       120.053956       52.522876      703.534843    22     0     0     0     4   4.370 0.200E-61 0.399E-61 0.137E-10
       197.666948       80.736528      489.120152    16     0     0     0     4   3.930 0.200E-43 0.399E-43 0.123E-09
       122.726659       38.649775      783.797179    24     3     0     0     2   4.495 0.000E+00 0.000E+00 0.205E+02
       132.617816       74.578843     1108.714933     1     0     0     0     8   1.560 0.200E+02 0.399E+02 0.000E+00
        31.094962      175.717082     1452.966428     1     0     0     0     7   1.560 0.200E+02 0.399E+02 0.000E+00
       187.804135       88.098847      320.517775    12     2     0     0     1   3.568 0.000E+00 0.000E+00 0.157E+02
        93.474039       90.052267     1669.851114     1     0     0     0     1   1.560 0.200E+02 0.399E+02 0.000E+00
       186.506977       27.125986      560.284272    23     1     0     0     1   4.432 0.000E+00 0.000E+00 0.980E+01
        39.807883      131.272971       69.574621     8     0     0     0     2   3.120 0.200E-19 0.399E-19 0.164E-04
       198.013995      115.722236      265.876575    14     0     0     0     1   3.760 0.200E-37 0.399E-37 0.334E-09
       146.527916      139.995857     2195.749643     1     0     0     0     8   1.560 0.200E+02 0.399E+02 0.000E+00
       165.221161       84.495012      316.563376    12     1     0     0     5   3.568 0.000E+00 0.000E+00 0.981E+01
        71.443769       11.340619      150.218700     7     0     0     0     2   2.980 0.200E-16 0.399E-16 0.279E-03
       114.761103      101.063241       80.083514     9     0     0     0     2   3.240 0.200E-22 0.399E-22 0.141E-07
       121.818578       42.282754      474.555443    11     1     0     0     6   3.466 0.000E+00 0.000E+00 0.981E+01
        24.010178       12.065779       94.375933    16     0     0     0     1   3.930 0.200E-43 0.399E-43 0.123E-09
        43.644571      116.036595      124.681332    13     1     0     0     8   3.664 0.000E+00 0.000E+00 0.853E+00
        83.578519      100.506524      290.298083    11     2     0     0     4   3.466 0.000E+00 0.000E+00 0.157E+02
       198.209488        6.560055      681.309283    23     2     0     0     3   4.432 0.000E+00 0.000E+00 0.156E+02
        83.069466       91.154192      385.800169    10     1     0     0     3   3.357 0.000E+00 0.000E+00 0.981E+01
        33.652471      128.282407      806.545984    26     1     0     0     6   4.617 0.000E+00 0.000E+00 0.852E+00
       101.054905       65.117864      361.370915     9     0     0     0     1   3.240 0.200E-22 0.399E-22 0.141E-07
        72.408778       44.672031      517.991661    18     0     0     0     5   4.080 0.200E-49 0.399E-49 0.528E-10
       154.626459      192.385289     1507.842934     1     0     0     0     4   1.560 0.200E+02 0.399E+02 0.000E+00
        66.694939       91.046582      185.777667    10     1     0     0     7   3.357 0.000E+00 0.000E+00 0.981E+01
       139.698075      159.703354      387.870412     8     0     0     0     1   3.120 0.200E-19 0.399E-19 0.164E-04
       102.259066      137.264317      148.036978    12     0     0     0     3   3.570 0.200E-31 0.399E-31 0.115E-08
       180.928504       22.893776      498.095555    14     0     0     0     4   3.760 0.200E-37 0.399E-37 0.334E-09
       106.579410      102.054590       59.121998     6     0     0     0     7   2.830 0.200E-13 0.399E-13 0.117E-04
        14.356484        0.529404       92.326420     6     0     0     0     4   2.830 0.200E-13 0.399E-13 0.117E-04
        28.952696      132.709070     1318.842011     1     0     0     0     4   1.560 0.200E+02 0.399E+02 0.000E+00
        16.617222       43.625275     1390.178035     1     0     0     0     7   1.560 0.200E+02 0.399E+02 0.000E+00
       197.696654       26.027868     2329.443887     1     0     0     0     1   1.560 0.200E+02 0.399E+02 0.000E+00
       158.292624       78.586338      415.084022    19     2     0     0     2   4.158 0.000E+00 0.000E+00 0.156E+02
       166.500899       84.496367      769.340898    20     1     0     0     8   4.230 0.000E+00 0.000E+00 0.980E+01
        15.475391      163.649507     2013.541945     1     0     0     0     8   1.560 0.200E+02 0.399E+02 0.000E+00
        84.249420       51.644100      299.627423     8     1     0     0     3   3.117 0.000E+00 0.000E+00 0.981E+01
        29.094753      135.561647      133.338506     7     0     0     0     5   2.980 0.200E-16 0.399E-16 0.279E-03
        65.273638       47.718646       48.153904    12     0     0     0     4   3.570 0.200E-31 0.399E-31 0.115E-08
       147.168263      181.149738      270.992300    10     0     0     0     6   3.360 0.200E-25 0.399E-25 0.540E-08
         2.470076        0.330357      180.536418     8     1     0     0     7   3.117 0.000E+00 0.000E+00 0.981E+01
        56.129533      122.381657      155.283408     9     0     0     0     3   3.240 0.200E-22 0.399E-22 0.141E-07
       122.167492       39.868017      135.847786    16     0     0     0     4   3.930 0.200E-43 0.399E-43 0.123E-09
       156.833165       82.166430      500.425169    12     2     0     0     1   3.568 0.000E+00 0.000E+00 0.157E+02
       185.431522      101.314286     1450.282857     1     0     0     0     6   1.560 0.200E+02 0.399E+02 0.000E+00
       173.398599      160.952551     1634.667678     1     0     0     0     4   1.560 0.200E+02 0.399E+02 0.000E+00
        79.016203        3.171207      685.268528    21     1     0     0     8   4.299 0.000E+00 0.000E+00 0.980E+01
         2.578653       69.941668     1018.915348    48     0     0     0     4   5.660 0.200-139 0.399-139 0.173E-12
         2.372457      115.331207     1236.991441     1     0     0     0     7   1.560 0.200E+02 0.399E+02 0.000E+00
       103.320290       45.503738      122.270463     8     0     0     0     4   3.120 0.200E-19 0.399E-19 0.164E-04
         8.399359      124.660511     1210.436628     1     0     0     0     8   1.560 0.200E+02 0.399E+02 0.000E+00
       160.921467      188.492411     1179.857069     1     0     0     0     5   1.560 0.200E+02 0.399E+02 0.000E+00
       148.646724       11.381769      118.995798    10     0     0     0     8   3.360 0.200E-25 0.399E-25 0.540E-08
       174.540021      182.971298      217.515010    10     0     0     0     5   3.360 0.200E-25 0.399E-25 0.540E-08
       185.653702       33.368032      162.772698     6     0     0     0     2   2.830 0.200E-13 0.399E-13 0.117E-04
       120.987692       93.228463      419.160634    12     0     0     0     2   3.570 0.200E-31 0.399E-31 0.115E-08
       146.234022        7.117890     1634.306402     1     0     0     0     2   1.560 0.200E+02 0.399E+02 0.000E+00