ITEM: TIMESTEP
0
ITEM: NUMBER OF ATOMS
         523
ITEM: BOX BOUNDS pp pp pp
  0.0000000E+00   200.000000000000     
  0.0000000E+00   200.000000000000     
  0.0000000E+00   5000.00000000000     
ITEM: ATOMS x y z f1 f2 f3 f4 orient radius rate_mig rate_rot rate_emit
        60.221444      146.072946       44.664971     9     0     0     0     7   3.240 0.277E-22 0.555E-22 0.264E-07
        87.289589       64.997570      464.838703    14     1     0     0     5   3.756 0.000E+00 0.000E+00 0.142E+02
        76.230508      149.699902      269.608101    25     0     0     0     3   4.560 0.277E-70 0.555E-70 0.126E-10
       106.081610      163.088553     1501.720364     1     0     0     0     2   1.560 0.277E+02 0.555E+02 0.000E+00
        85.048966       55.698511      337.603253    10     0     0     0     3   3.360 0.277E-25 0.555E-25 0.102E-07
        15.647586      133.934744      233.294877    17     1     0     0     2   4.007 0.000E+00 0.000E+00 0.142E+02
        99.749110      169.042280      201.817924    13     1     0     0     4   3.664 0.000E+00 0.000E+00 0.128E+01
       188.134533       74.787424      175.262033    17     0     0     0     3   4.010 0.277E-46 0.555E-46 0.159E-09
       196.855819      130.746666      151.344618    13     0     0     0     3   3.660 0.277E-34 0.555E-34 0.116E-08
       109.997360       66.157838     1229.364011     1     0     0     0     2   1.560 0.277E+02 0.555E+02 0.000E+00
       194.970010      180.427665      386.196369    15     0     0     0     8   3.840 0.277E-40 0.555E-40 0.391E-09
        50.462968      182.691284      871.456278    34     1     0     0     2   5.048 0.000E+00 0.000E+00 0.142E+02
       147.168263      181.149738      270.992300    10     0     0     0     1   3.360 0.277E-25 0.555E-25 0.102E-07
         7.379329      175.715167      457.081692    19     1     0     0     4   4.158 0.000E+00 0.000E+00 0.142E+02
       141.897536       63.343014      565.356000    13     1     0     0     4   3.664 0.000E+00 0.000E+00 0.128E+01
       101.255400       86.608797     1306.599683     1     0     0     0     7   1.560 0.277E+02 0.555E+02 0.000E+00
         1.675858      140.495319     1752.558798     1     0     0     0     5   1.560 0.277E+02 0.555E+02 0.000E+00
       131.024633      110.421748      159.034370    10     0     0     0     3   3.360 0.277E-25 0.555E-25 0.102E-07
       182.023309       37.186968      230.353054     6     0     0     0     6   2.830 0.277E-13 0.555E-13 0.200E-04
       167.838527      196.949343     1236.990987     1     0     0     0     1   1.560 0.277E+02 0.555E+02 0.000E+00
       107.792539       50.178326      514.988442     9     1     0     0     3   3.241 0.000E+00 0.000E+00 0.142E+02
        85.279327      110.862333      536.933150    13     0     0     0     8   3.660 0.277E-34 0.555E-34 0.116E-08
       156.833165       82.166430      500.425169    12     0     0     0     2   3.570 0.277E-31 0.555E-31 0.222E-08
       140.884746       78.112294     1696.083991     1     0     0     0     1   1.560 0.277E+02 0.555E+02 0.000E+00
       116.093904       28.390559       28.726266     9     0     0     0     1   3.240 0.277E-22 0.555E-22 0.264E-07
        92.433881      170.491461      138.245294    13     0     0     0     8   3.660 0.277E-34 0.555E-34 0.116E-08
       137.376661      191.591577     1037.341946    41     0     0     0     2   5.370 0.277-118 0.555-118 0.815E-12
         2.470076        0.330357      180.536418     8     0     0     0     3   3.120 0.277E-19 0.555E-19 0.280E-04
        49.351751      199.911892      323.751254     8     0     0     0     6   3.120 0.277E-19 0.555E-19 0.280E-04
       155.472320      182.582328      629.701769    20     0     0     0     7   4.230 0.277E-55 0.555E-55 0.523E-10
        65.273638       47.718646       48.153904    12     0     0     0     6   3.570 0.277E-31 0.555E-31 0.222E-08
        91.555690      168.567916       66.232380    16     0     0     0     3   3.930 0.277E-43 0.555E-43 0.245E-09
       118.167413      169.709737      691.073765    24     0     0     0     3   4.500 0.277E-67 0.555E-67 0.163E-10
        89.070903       59.303135     1096.332636     1     0     0     0     5   1.560 0.277E+02 0.555E+02 0.000E+00
        98.397389      180.574908      491.148852    18     0     0     0     1   4.080 0.277E-49 0.555E-49 0.107E-09
        90.777168       75.842761      535.626477    15     0     0     0     4   3.840 0.277E-40 0.555E-40 0.391E-09
        16.787617       66.296862       72.458717    10     0     0     0     2   3.360 0.277E-25 0.555E-25 0.102E-07
        66.117785       33.282799     2023.037394     1     0     0     0     7   1.560 0.277E+02 0.555E+02 0.000E+00
       122.167492       39.868017      135.847786    16     0     0     0     3   3.930 0.277E-43 0.555E-43 0.245E-09
       144.497725       61.239522      321.732739    16     1     0     0     8   3.927 0.000E+00 0.000E+00 0.142E+02
        17.145494       88.319941      474.653497    22     1     0     0     3   4.367 0.000E+00 0.000E+00 0.142E+02
        59.942700       23.938973      303.833771    18     0     0     0     5   4.080 0.277E-49 0.555E-49 0.107E-09
       106.591033       17.487665     1222.557359     1     0     0     0     4   1.560 0.277E+02 0.555E+02 0.000E+00
        74.125379      186.008205      224.895500    15     0     0     0     7   3.840 0.277E-40 0.555E-40 0.391E-09
         2.034418       57.951864     1408.142377     1     0     0     0     1   1.560 0.277E+02 0.555E+02 0.000E+00
       197.204266       37.593889      237.783320     8     0     0     0     7   3.120 0.277E-19 0.555E-19 0.280E-04
       187.099156       25.839670      594.451228    18     1     0     0     2   4.084 0.000E+00 0.000E+00 0.142E+02
        32.823934       23.032189      293.747106     7     0     0     0     5   2.980 0.277E-16 0.555E-16 0.459E-03
        21.787236      148.157159      189.561989     6     0     0     0     3   2.830 0.277E-13 0.555E-13 0.200E-04
        31.952429      166.440613     1147.057097     1     0     0     0     4   1.560 0.277E+02 0.555E+02 0.000E+00
       123.896019       60.025816       67.631162     8     0     0     0     5   3.120 0.277E-19 0.555E-19 0.280E-04
        79.937502       73.020575      210.341197    21     0     0     0     6   4.300 0.277E-58 0.555E-58 0.378E-10
       147.054260      191.211222     2418.068077     1     0     0     0     1   1.560 0.277E+02 0.555E+02 0.000E+00
        69.193054       11.089508      204.626131    19     0     0     0     4   4.160 0.277E-52 0.555E-52 0.737E-10
       153.394634      110.882309      235.431680     9     0     0     0     2   3.240 0.277E-22 0.555E-22 0.264E-07
        58.105996       98.380489      274.114953    20     1     0     0     3   4.230 0.000E+00 0.000E+00 0.142E+02
       121.337608      148.534818     1277.695066     1     0     0     0     4   1.560 0.277E+02 0.555E+02 0.000E+00
       106.579410      102.054590       59.121998     6     0     0     0     7   2.830 0.277E-13 0.555E-13 0.200E-04
        87.167441      168.430487       78.865369     8     0     0     0     5   3.120 0.277E-19 0.555E-19 0.280E-04
        76.200416       95.303656      155.468000    12     0     0     0     1   3.570 0.277E-31 0.555E-31 0.222E-08
        61.258608       77.128885     1222.750088     1     0     0     0     4   1.560 0.277E+02 0.555E+02 0.000E+00
       167.800373      167.717694       27.241053    11     0     0     0     7   3.470 0.277E-28 0.555E-28 0.455E-08
       177.792477       58.620212      978.110447     1     0     0     0     3   1.560 0.277E+02 0.555E+02 0.000E+00
        57.884074      124.715457       70.313490    12     0     0     0     5   3.570 0.277E-31 0.555E-31 0.222E-08
        87.897088      191.770811     1249.523337     1     0     0     0     6   1.560 0.277E+02 0.555E+02 0.000E+00
       142.314409      191.032037       42.048257    14     0     0     0     6   3.760 0.277E-37 0.555E-37 0.658E-09
        27.083587       16.609617      372.239203     9     0     0     0     7   3.240 0.277E-22 0.555E-22 0.264E-07
         0.222779      137.012550     1709.176614     1     0     0     0     6   1.560 0.277E+02 0.555E+02 0.000E+00
        53.470016       24.321310     1879.563389     1     0     0     0     8   1.560 0.277E+02 0.555E+02 0.000E+00
       131.526284      116.134378      460.222683    12     0     0     0     3   3.570 0.277E-31 0.555E-31 0.222E-08
       117.318408      117.789184      106.004935    11     0     0     0     2   3.470 0.277E-28 0.555E-28 0.455E-08
       197.841571      143.875545     1696.855292     1     0     0     0     6   1.560 0.277E+02 0.555E+02 0.000E+00
        83.036206      144.939453      599.540396    15     0     0     0     7   3.840 0.277E-40 0.555E-40 0.391E-09
         9.034998       29.961261      372.519227    12     0     0     0     1   3.570 0.277E-31 0.555E-31 0.222E-08
        23.171388      155.084804       97.864350    17     0     0     0     7   4.010 0.277E-46 0.555E-46 0.159E-09
        35.337775      136.995171     1484.104312     1     0     0     0     2   1.560 0.277E+02 0.555E+02 0.000E+00
       140.998689       86.963348      101.502835     7     0     0     0     5   2.980 0.277E-16 0.555E-16 0.459E-03
       198.209488        6.560055      681.309283    23     0     0     0     4   4.430 0.277E-64 0.555E-64 0.212E-10
        21.312328       55.176059     1300.488142     1     0     0     0     3   1.560 0.277E+02 0.555E+02 0.000E+00
        14.356484        0.529404       92.326420     6     1     0     0     1   2.832 0.000E+00 0.000E+00 0.143E+02
        84.249420       51.644100      299.627423     8     0     0     0     6   3.120 0.277E-19 0.555E-19 0.280E-04
       134.530998       22.912651     1445.959384     1     0     0     0     6   1.560 0.277E+02 0.555E+02 0.000E+00
        80.195313       28.451130      592.027274    19     0     0     0     1   4.160 0.277E-52 0.555E-52 0.737E-10
       189.625262       48.658551       51.156701    14     0     0     0     1   3.760 0.277E-37 0.555E-37 0.658E-09
       129.655182       26.490380      103.759805    10     0     0     0     5   3.360 0.277E-25 0.555E-25 0.102E-07
       120.987692       93.228463      419.160634    12     1     0     0     4   3.568 0.000E+00 0.000E+00 0.142E+02
       164.969134       57.629101       91.534164    11     0     0     0     5   3.470 0.277E-28 0.555E-28 0.455E-08
        44.320441       51.839916      773.015850    24     0     0     0     8   4.500 0.277E-67 0.555E-67 0.163E-10
       196.991117      139.511153      189.150492    12     0     0     0     4   3.570 0.277E-31 0.555E-31 0.222E-08
        78.005218      183.157072      213.472464     5     0     0     0     2   2.660 0.277E-10 0.555E-10 0.865E-03
       167.100723      177.618532      408.587793    12     0     0     0     1   3.570 0.277E-31 0.555E-31 0.222E-08
       175.505253      198.001789      114.025482    12     0     0     0     5   3.570 0.277E-31 0.555E-31 0.222E-08
         6.412474      156.726406     1137.780406     1     0     0     0     5   1.560 0.277E+02 0.555E+02 0.000E+00
       112.310470      190.374464      340.845641     8     0     0     0     8   3.120 0.277E-19 0.555E-19 0.280E-04
        59.744212      115.976092     1919.291935     1     0     0     0     3   1.560 0.277E+02 0.555E+02 0.000E+00
        82.658531      117.489808      437.260206    13     2     0     0     5   3.664 0.000E+00 0.000E+00 0.227E+02
       134.866076      198.004897     1251.335013     1     0     0     0     7   1.560 0.277E+02 0.555E+02 0.000E+00
        23.564194      176.498798     1315.029085     1     0     0     0     5   1.560 0.277E+02 0.555E+02 0.000E+00
        58.214852        1.993577      279.149481     6     0     0     0     6   2.830 0.277E-13 0.555E-13 0.200E-04
       163.398537       97.397047       98.862200     8     1     0     0     7   3.117 0.000E+00 0.000E+00 0.142E+02
       134.691756       73.108936      514.584422    20     0     0     0     5   4.230 0.277E-55 0.555E-55 0.523E-10
       154.114390      184.525554       75.340852    13     1     0     0     5   3.664 0.000E+00 0.000E+00 0.128E+01
       157.880213       13.190712       30.079589     8     0     0     0     8   3.120 0.277E-19 0.555E-19 0.280E-04
        56.129533      122.381657      155.283408     9     0     0     0     7   3.240 0.277E-22 0.555E-22 0.264E-07
       104.231474      128.312817       47.057942    11     0     0     0     4   3.470 0.277E-28 0.555E-28 0.455E-08
        14.297527      191.558534      818.868754    16     0     0     0     5   3.930 0.277E-43 0.555E-43 0.245E-09
       197.314632       79.041790      128.483059     7     1     0     0     1   2.981 0.000E+00 0.000E+00 0.143E+02
        85.775693       80.531238      160.166091     9     0     0     0     6   3.240 0.277E-22 0.555E-22 0.264E-07
        87.302005      152.429467       92.463803    11     0     0     0     7   3.470 0.277E-28 0.555E-28 0.455E-08
        47.815967       75.836501      316.915706     9     0     0     0     4   3.240 0.277E-22 0.555E-22 0.264E-07
       137.388064       42.145909      116.539994     9     0     0     0     4   3.240 0.277E-22 0.555E-22 0.264E-07
       110.532367      164.015391       40.731932     7     0     0     0     6   2.980 0.277E-16 0.555E-16 0.459E-03
       182.973458       80.026475      160.941458    13     1     0     0     3   3.664 0.000E+00 0.000E+00 0.128E+01
       194.942997       13.842474        8.725081     5     0     0     0     4   2.660 0.277E-10 0.555E-10 0.865E-03
       137.206159      159.188233      820.382391    22     2     0     0     5   4.367 0.000E+00 0.000E+00 0.226E+02
       183.365511       87.875195       66.529253     9     1     0     0     7   3.241 0.000E+00 0.000E+00 0.142E+02
       122.011297      186.061425       87.832890    10     0     0     0     3   3.360 0.277E-25 0.555E-25 0.102E-07
        91.242323      103.185768      131.290292    10     0     0     0     5   3.360 0.277E-25 0.555E-25 0.102E-07
        28.682362      100.261744       39.360714    18     0     0     0     1   4.080 0.277E-49 0.555E-49 0.107E-09
       193.729080       76.270517      375.330694     8     0     0     0     3   3.120 0.277E-19 0.555E-19 0.280E-04
        98.237489        4.501858      325.001990     8     0     0     0     7   3.120 0.277E-19 0.555E-19 0.280E-04
       179.839595        7.934877     1253.035947     1     0     0     0     3   1.560 0.277E+02 0.555E+02 0.000E+00
       148.646724       11.381769      118.995798    10     0     0     0     5   3.360 0.277E-25 0.555E-25 0.102E-07
       163.979689      116.460209       47.705366    11     0     0     0     2   3.470 0.277E-28 0.555E-28 0.455E-08
        28.362444        4.904973     1951.935746     1     0     0     0     5   1.560 0.277E+02 0.555E+02 0.000E+00
        66.581329      110.348930      239.755886     8     0     0     0     3   3.120 0.277E-19 0.555E-19 0.280E-04
       112.332052      124.486857      289.435989    12     0     0     0     3   3.570 0.277E-31 0.555E-31 0.222E-08
       163.775785       85.068627     1566.541444     1     0     0     0     3   1.560 0.277E+02 0.555E+02 0.000E+00
       199.163015      173.442876      465.234410    12     0     0     0     8   3.570 0.277E-31 0.555E-31 0.222E-08
        20.603426       68.295097      466.857276     9     0     0     0     2   3.240 0.277E-22 0.555E-22 0.264E-07
         4.119717      105.902099     1108.229142     1     0     0     0     5   1.560 0.277E+02 0.555E+02 0.000E+00
       185.426611       31.295317      486.032669    18     0     0     0     3   4.080 0.277E-49 0.555E-49 0.107E-09
       126.138569       54.533245      341.234920    10     1     0     0     8   3.357 0.000E+00 0.000E+00 0.142E+02
        42.085409       15.425974      513.798196    13     1     0     0     8   3.664 0.000E+00 0.000E+00 0.128E+01
         4.254788      135.226066      559.526675    19     0     0     0     1   4.160 0.277E-52 0.555E-52 0.737E-10
       118.971310       49.108488      360.588579    12     0     0     0     8   3.570 0.277E-31 0.555E-31 0.222E-08
        84.970341       81.855445      289.343433    14     0     0     0     3   3.760 0.277E-37 0.555E-37 0.658E-09
        37.367311      181.060718      811.704830    20     0     0     0     2   4.230 0.277E-55 0.555E-55 0.523E-10
        45.989525       79.067231     1865.112889     1     0     0     0     6   1.560 0.277E+02 0.555E+02 0.000E+00
        95.486151       81.762349      370.799259    16     0     0     0     5   3.930 0.277E-43 0.555E-43 0.245E-09
       161.856563      155.676731      536.776224    23     3     0     0     2   4.432 0.000E+00 0.000E+00 0.298E+02
       174.540021      182.971298      217.515010    10     0     0     0     8   3.360 0.277E-25 0.555E-25 0.102E-07
       173.919202      110.405202      116.268054    12     1     0     0     4   3.568 0.000E+00 0.000E+00 0.142E+02
       135.242524      168.904308     1206.783944     1     0     0     0     1   1.560 0.277E+02 0.555E+02 0.000E+00
       113.170984      198.539347       75.422456    19     0     0     0     1   4.160 0.277E-52 0.555E-52 0.737E-10
       159.053500       69.830128       31.437147     9     0     0     0     4   3.240 0.277E-22 0.555E-22 0.264E-07
        79.525387      166.645840       31.563814     6     0     0     0     3   2.830 0.277E-13 0.555E-13 0.200E-04
        74.953408       16.705855      123.657347     8     0     0     0     3   3.120 0.277E-19 0.555E-19 0.280E-04
        76.507429      126.945405      222.564160    15     0     0     0     7   3.840 0.277E-40 0.555E-40 0.391E-09
       172.303838      117.543909      242.596405     8     0     0     0     5   3.120 0.277E-19 0.555E-19 0.280E-04
        63.453025      190.675142      304.142221    10     0     0     0     4   3.360 0.277E-25 0.555E-25 0.102E-07
        72.935096      195.157005      282.490223     6     0     0     0     1   2.830 0.277E-13 0.555E-13 0.200E-04
       188.094322      187.147119      428.851439     8     0     0     0     7   3.120 0.277E-19 0.555E-19 0.280E-04
       156.542273      150.372366      189.882206     9     0     0     0     8   3.240 0.277E-22 0.555E-22 0.264E-07
        94.656289      139.871803      191.245201    24     1     0     0     2   4.495 0.000E+00 0.000E+00 0.142E+02
       165.221161       84.495012      316.563376    12     1     0     0     3   3.568 0.000E+00 0.000E+00 0.142E+02
        63.090243        4.810164      365.906754    19     0     0     0     6   4.160 0.277E-52 0.555E-52 0.737E-10
        67.331569        9.797554     1398.634243     1     0     0     0     3   1.560 0.277E+02 0.555E+02 0.000E+00
        53.338135      166.090188      341.611804     6     0     0     0     4   2.830 0.277E-13 0.555E-13 0.200E-04
        44.510499       36.679824      216.992032     9     1     0     0     4   3.241 0.000E+00 0.000E+00 0.142E+02
       162.106260       26.007547      264.802995    12     0     0     0     8   3.570 0.277E-31 0.555E-31 0.222E-08
        14.620965       42.030617       75.171912    17     0     0     0     3   4.010 0.277E-46 0.555E-46 0.159E-09
       139.698075      159.703354      387.870412     8     0     0     0     3   3.120 0.277E-19 0.555E-19 0.280E-04
       152.072785       68.217921      618.151799    21     1     0     0     8   4.299 0.000E+00 0.000E+00 0.142E+02
        83.069466       91.154192      385.800169    10     1     0     0     5   3.357 0.000E+00 0.000E+00 0.142E+02
       184.077770      140.936398      585.808387    15     0     0     0     8   3.840 0.277E-40 0.555E-40 0.391E-09
       164.514540        0.054582      184.467838    18     0     0     0     6   4.080 0.277E-49 0.555E-49 0.107E-09
       147.011756      187.597028      659.470206    20     1     0     0     8   4.230 0.000E+00 0.000E+00 0.142E+02
       126.635138       70.994907       58.804537    13     1     0     0     5   3.664 0.000E+00 0.000E+00 0.128E+01
        74.654327      187.007876      576.504350    21     0     0     0     4   4.300 0.277E-58 0.555E-58 0.378E-10
       177.870505       23.881618       26.486996    14     0     0     0     2   3.760 0.277E-37 0.555E-37 0.658E-09
       161.163925      129.372679     1465.044707     1     0     0     0     4   1.560 0.277E+02 0.555E+02 0.000E+00
       156.294016        8.339443      228.344728     6     0     0     0     2   2.830 0.277E-13 0.555E-13 0.200E-04
       114.761103      101.063241       80.083514     9     0     0     0     3   3.240 0.277E-22 0.555E-22 0.264E-07
        25.765990      177.526789      582.804381    14     0     0     0     7   3.760 0.277E-37 0.555E-37 0.658E-09
       181.956156      115.348264     1437.922177     1     0     0     0     4   1.560 0.277E+02 0.555E+02 0.000E+00
       146.496027       50.757826       95.220335     8     0     0     0     3   3.120 0.277E-19 0.555E-19 0.280E-04
         3.383076        8.990276       94.711516    24     0     0     0     8   4.500 0.277E-67 0.555E-67 0.163E-10
        11.897631       96.102907      270.102150    14     0     0     0     6   3.760 0.277E-37 0.555E-37 0.658E-09
       196.406185       81.005835      556.198413    15     1     0     0     4   3.843 0.000E+00 0.000E+00 0.661E+02
       178.981017      162.215417      439.465079     6     0     0     0     2   2.830 0.277E-13 0.555E-13 0.200E-04
       191.103471      189.720491      442.072533    13     1     0     0     5   3.664 0.000E+00 0.000E+00 0.128E+01
       111.711104      144.736190       33.056811     6     0     0     0     2   2.830 0.277E-13 0.555E-13 0.200E-04
       121.505775       77.229141      395.522477    14     1     0     0     3   3.756 0.000E+00 0.000E+00 0.142E+02
        45.405229        4.051582      284.065301     6     1     0     0     8   2.832 0.000E+00 0.000E+00 0.143E+02
       190.021825       80.807379     1073.793520     1     0     0     0     1   1.560 0.277E+02 0.555E+02 0.000E+00
       110.962008        1.013586     1434.512169     1     0     0     0     1   1.560 0.277E+02 0.555E+02 0.000E+00
       158.619432       76.161732      107.038533    11     0     0     0     3   3.470 0.277E-28 0.555E-28 0.455E-08
       116.490358       58.226885      100.210725    10     0     0     0     5   3.360 0.277E-25 0.555E-25 0.102E-07
        12.959783      160.492750       94.339551     8     0     0     0     8   3.120 0.277E-19 0.555E-19 0.280E-04
       171.301235       13.325626      727.615671    19     0     0     0     3   4.160 0.277E-52 0.555E-52 0.737E-10
         3.756312      113.994514      366.505533     9     2     0     0     4   3.241 0.000E+00 0.000E+00 0.228E+02
       101.224175      186.258487      221.090993    14     0     0     0     1   3.760 0.277E-37 0.555E-37 0.658E-09
       120.531350       69.535966      495.664905     9     0     0     0     3   3.240 0.277E-22 0.555E-22 0.264E-07
       132.617816      115.725789     1089.724035     1     0     0     0     1   1.560 0.277E+02 0.555E+02 0.000E+00
       116.586586       77.309743     1603.157047     1     0     0     0     1   1.560 0.277E+02 0.555E+02 0.000E+00
        20.352017       86.342668      700.363096    13     1     0     0     5   3.664 0.000E+00 0.000E+00 0.128E+01
         6.722699       16.546535     1586.409079     1     0     0     0     5   1.560 0.277E+02 0.555E+02 0.000E+00
        73.814238       73.829399     2055.851226     1     0     0     0     4   1.560 0.277E+02 0.555E+02 0.000E+00
       106.199210      145.446176      375.731000    11     0     0     0     1   3.470 0.277E-28 0.555E-28 0.455E-08
        83.578519      100.506524      290.298083    11     1     0     0     3   3.466 0.000E+00 0.000E+00 0.142E+02
        24.031469       58.631028      387.606556     9     0     0     0     7   3.240 0.277E-22 0.555E-22 0.264E-07
        67.039214       19.488600      235.468423    16     0     0     0     8   3.930 0.277E-43 0.555E-43 0.245E-09
        20.240241      165.908759       62.109052    12     0     0     0     1   3.570 0.277E-31 0.555E-31 0.222E-08
       130.025481      171.861022     1577.609636     1     0     0     0     2   1.560 0.277E+02 0.555E+02 0.000E+00
        16.698661      154.469899      359.965798    10     0     0     0     4   3.360 0.277E-25 0.555E-25 0.102E-07
       105.412705      181.900153      465.141268    20     0     0     0     6   4.230 0.277E-55 0.555E-55 0.523E-10
       198.175322      128.462898       39.728176     8     0     0     0     3   3.120 0.277E-19 0.555E-19 0.280E-04
       174.038650       57.747255     1143.262193     1     0     0     0     1   1.560 0.277E+02 0.555E+02 0.000E+00
        39.553546       58.691464      282.306919     9     0     0     0     3   3.240 0.277E-22 0.555E-22 0.264E-07
        97.393493       85.169342     1853.190180     1     0     0     0     5   1.560 0.277E+02 0.555E+02 0.000E+00
       180.066198       71.559589      147.437813     7     0     0     0     8   2.980 0.277E-16 0.555E-16 0.459E-03
       187.804135       88.098847      320.517775    12     0     0     0     8   3.570 0.277E-31 0.555E-31 0.222E-08
        79.016203        3.171207      685.268528    21     0     0     0     7   4.300 0.277E-58 0.555E-58 0.378E-10
       185.653702       33.368032      162.772698     6     1     0     0     4   2.832 0.000E+00 0.000E+00 0.143E+02
         2.578653       69.941668     1018.915348    48     1     0     0     7   5.663 0.000E+00 0.000E+00 0.142E+02
        18.190717      148.746673      336.968478     9     0     0     0     1   3.240 0.277E-22 0.555E-22 0.264E-07
       163.899657       47.470992      252.619155     8     0     0     0     5   3.120 0.277E-19 0.555E-19 0.280E-04
        33.229912      114.915526      166.901534    14     0     0     0     4   3.760 0.277E-37 0.555E-37 0.658E-09
        53.647173      107.492386      400.707070    11     0     0     0     6   3.470 0.277E-28 0.555E-28 0.455E-08
       101.630774      133.600193      274.102567    11     1     0     0     6   3.466 0.000E+00 0.000E+00 0.142E+02
        48.535916      136.371285      504.700148    19     0     0     0     5   4.160 0.277E-52 0.555E-52 0.737E-10
       103.320290       45.503738      122.270463     8     1     0     0     6   3.117 0.000E+00 0.000E+00 0.142E+02
       168.949303      179.557096      459.462520    12     0     0     0     5   3.570 0.277E-31 0.555E-31 0.222E-08
       118.313144      104.423288      852.467424    32     0     0     0     3   4.950 0.277E-91 0.555E-91 0.303E-11
       197.335312      171.949079     2126.310350     1     0     0     0     3   1.560 0.277E+02 0.555E+02 0.000E+00
        35.842686      177.299657     1486.200499     1     0     0     0     6   1.560 0.277E+02 0.555E+02 0.000E+00
        86.285633      164.519133      163.374767    14     0     0     0     6   3.760 0.277E-37 0.555E-37 0.658E-09
        17.214158      161.105156      239.248219    10     0     0     0     2   3.360 0.277E-25 0.555E-25 0.102E-07
       136.814358      125.917087     1618.306302     1     0     0     0     1   1.560 0.277E+02 0.555E+02 0.000E+00
       138.248213       95.792369      529.222476    14     1     0     0     2   3.756 0.000E+00 0.000E+00 0.142E+02
       156.468694       95.568496       37.862730    10     0     0     0     7   3.360 0.277E-25 0.555E-25 0.102E-07
       189.274453      144.939571      795.019819    19     0     0     0     7   4.160 0.277E-52 0.555E-52 0.737E-10
        40.104129      152.146018      746.090082    21     0     0     0     3   4.300 0.277E-58 0.555E-58 0.378E-10
        33.055306      167.467921      316.464628    11     1     0     0     8   3.466 0.000E+00 0.000E+00 0.142E+02
        84.381127      193.194324      395.657210    13     0     0     0     7   3.660 0.277E-34 0.555E-34 0.116E-08
       121.858180       90.852696       31.862258     9     0     0     0     4   3.240 0.277E-22 0.555E-22 0.264E-07
       100.498573       41.635112      149.637204     9     0     0     0     3   3.240 0.277E-22 0.555E-22 0.264E-07
        23.456202      153.229342     1304.470723     1     0     0     0     1   1.560 0.277E+02 0.555E+02 0.000E+00
       142.025835       25.090515      831.189079    14     1     0     0     1   3.756 0.000E+00 0.000E+00 0.142E+02
       117.314156       26.131784      435.918395    14     1     0     0     5   3.756 0.000E+00 0.000E+00 0.142E+02
       184.660737      138.903685     1272.157046     1     0     0     0     2   1.560 0.277E+02 0.555E+02 0.000E+00
       162.787872       45.237463     1651.043057     1     0     0     0     5   1.560 0.277E+02 0.555E+02 0.000E+00
       194.953378       31.553957      120.838931    11     0     0     0     1   3.470 0.277E-28 0.555E-28 0.455E-08
         2.283246       12.167502      790.638042    16     0     0     0     1   3.930 0.277E-43 0.555E-43 0.245E-09
       167.599592       13.913029      255.831142     7     0     0     0     2   2.980 0.277E-16 0.555E-16 0.459E-03
       151.021783      152.586119      294.513082     9     0     0     0     8   3.240 0.277E-22 0.555E-22 0.264E-07
       107.280029       69.512174      796.301420    21     2     0     0     2   4.299 0.000E+00 0.000E+00 0.226E+02
       156.951282      111.389702      216.727265    19     0     0     0     1   4.160 0.277E-52 0.555E-52 0.737E-10
        20.316145       14.964571      266.941194    10     0     0     0     1   3.360 0.277E-25 0.555E-25 0.102E-07
        81.450774       96.654129     1456.403565     1     0     0     0     3   1.560 0.277E+02 0.555E+02 0.000E+00