ITEM: TIMESTEP
0
ITEM: NUMBER OF ATOMS
         523
ITEM: BOX BOUNDS pp pp pp
  0.0000000E+00   200.000000000000     
  0.0000000E+00   200.000000000000     
  0.0000000E+00   5000.00000000000     
ITEM: ATOMS x y z f1 f2 f3 f4 orient radius rate_mig rate_rot rate_emit
         1.653005      176.783852     1135.511615     1     0     0     0     1   1.560 0.382E+02 0.765E+02 0.000E+00
         8.988632      108.286100      307.568735    10     0     0     0     1   3.360 0.382E-25 0.765E-25 0.191E-07
       121.505775       77.229141      395.522477    14     0     0     0     1   3.760 0.382E-37 0.765E-37 0.127E-08
       150.270902       10.762059     1547.551184     1     0     0     0     5   1.560 0.382E+02 0.765E+02 0.000E+00
       173.919202      110.405202      116.268054    12     0     0     0     7   3.570 0.382E-31 0.765E-31 0.422E-08
        85.048966       55.698511      337.603253    10     0     0     0     1   3.360 0.382E-25 0.765E-25 0.191E-07
        65.273638       47.718646       48.153904    12     0     0     0     5   3.570 0.382E-31 0.765E-31 0.422E-08
         3.183738       87.720472      301.069663     8     0     0     0     6   3.120 0.382E-19 0.765E-19 0.472E-04
        20.603426       68.295097      466.857276     9     0     0     0     8   3.240 0.382E-22 0.765E-22 0.486E-07
        34.354836      132.519004     1243.323561     1     0     0     0     2   1.560 0.382E+02 0.765E+02 0.000E+00
       198.175322      128.462898       39.728176     8     0     0     0     4   3.120 0.382E-19 0.765E-19 0.472E-04
        98.237489        4.501858      325.001990     8     1     0     0     3   3.117 0.000E+00 0.000E+00 0.204E+02
       178.167335      159.217288       40.589806     7     0     0     0     4   2.980 0.382E-16 0.765E-16 0.745E-03
       156.542273      150.372366      189.882206     9     0     0     0     3   3.240 0.382E-22 0.765E-22 0.486E-07
       116.093904       28.390559       28.726266     9     0     0     0     8   3.240 0.382E-22 0.765E-22 0.486E-07
        98.678159       82.373233     1325.424722     1     0     0     0     8   1.560 0.382E+02 0.765E+02 0.000E+00
        55.792520      148.090350     1650.278833     1     0     0     0     8   1.560 0.382E+02 0.765E+02 0.000E+00
       181.948877      107.519998      257.231291     9     0     0     0     8   3.240 0.382E-22 0.765E-22 0.486E-07
        56.656369      154.011464      815.380394    13     1     0     0     2   3.664 0.000E+00 0.000E+00 0.189E+01
        37.299516      150.277903     1574.815942     1     0     0     0     2   1.560 0.382E+02 0.765E+02 0.000E+00
        33.819008      185.434281      627.026582    16     2     0     0     4   3.927 0.000E+00 0.000E+00 0.326E+02
       107.280029       69.512174      796.301420    21     0     0     0     2   4.300 0.382E-58 0.765E-58 0.761E-10
       189.625262       48.658551       51.156701    14     0     0     0     4   3.760 0.382E-37 0.765E-37 0.127E-08
       117.196133      149.472098     1284.468231     1     0     0     0     6   1.560 0.382E+02 0.765E+02 0.000E+00
       191.647004      106.957208       41.023411    14     0     0     0     8   3.760 0.382E-37 0.765E-37 0.127E-08
        72.878291        7.945426      166.329290    11     0     0     0     4   3.470 0.382E-28 0.765E-28 0.857E-08
       182.536515      123.660241      154.057776    12     0     0     0     2   3.570 0.382E-31 0.765E-31 0.422E-08
         2.283246       12.167502      790.638042    16     0     0     0     6   3.930 0.382E-43 0.765E-43 0.480E-09
       182.973458       80.026475      160.941458    13     0     0     0     8   3.660 0.382E-34 0.765E-34 0.223E-08
        33.949085      189.655045      289.120468     6     0     0     0     6   2.830 0.382E-13 0.765E-13 0.337E-04
       103.320290       45.503738      122.270463     8     0     0     0     7   3.120 0.382E-19 0.765E-19 0.472E-04
        87.302005      152.429467       92.463803    11     0     0     0     4   3.470 0.382E-28 0.765E-28 0.857E-08
        65.967448       49.346885      650.917390    21     0     0     0     6   4.300 0.382E-58 0.765E-58 0.761E-10
        36.055232      158.460714      136.909562     8     0     0     0     5   3.120 0.382E-19 0.765E-19 0.472E-04
        77.048260      155.468386      578.055124    14     0     0     0     6   3.760 0.382E-37 0.765E-37 0.127E-08
       140.277058      119.318535      725.001754    24     0     0     0     6   4.500 0.382E-67 0.765E-67 0.331E-10
       163.759382      194.260116      700.347634    26     1     0     0     1   4.617 0.000E+00 0.000E+00 0.189E+01
       158.292624       78.586338      415.084022    19     0     0     0     8   4.160 0.382E-52 0.765E-52 0.147E-09
       153.394634      110.882309      235.431680     9     0     0     0     2   3.240 0.382E-22 0.765E-22 0.486E-07
        91.222561       88.072572     2041.608053     1     0     0     0     6   1.560 0.382E+02 0.765E+02 0.000E+00
       184.491451      157.138314      320.519125    12     0     0     0     3   3.570 0.382E-31 0.765E-31 0.422E-08
       101.243508      129.156785     1195.735866     1     0     0     0     2   1.560 0.382E+02 0.765E+02 0.000E+00
       188.896853      178.988985     1743.882235     1     0     0     0     7   1.560 0.382E+02 0.765E+02 0.000E+00
         2.862109      118.480941      758.360725    18     0     0     0     5   4.080 0.382E-49 0.765E-49 0.211E-09
       125.162855      197.934553     1238.815320     1     0     0     0     2   1.560 0.382E+02 0.765E+02 0.000E+00
        58.487605      198.702774      218.865639    11     0     0     0     4   3.470 0.382E-28 0.765E-28 0.857E-08
       101.224175      186.258487      221.090993    14     1     0     0     1   3.756 0.000E+00 0.000E+00 0.204E+02
       109.162688       93.480565     1461.087905     1     0     0     0     8   1.560 0.382E+02 0.765E+02 0.000E+00
       153.993862      105.987717      465.100181    17     0     0     0     4   4.010 0.382E-46 0.765E-46 0.313E-09
       144.341793      127.742978      244.927566     9     0     0     0     7   3.240 0.382E-22 0.765E-22 0.486E-07
       126.635138       70.994907       58.804537    13     0     0     0     3   3.660 0.382E-34 0.765E-34 0.223E-08
        46.419925       25.743459      461.306305    10     0     0     0     4   3.360 0.382E-25 0.765E-25 0.191E-07
       170.289280      131.685169     1182.061384     1     0     0     0     8   1.560 0.382E+02 0.765E+02 0.000E+00
        66.694939       91.046582      185.777667    10     0     0     0     3   3.360 0.382E-25 0.765E-25 0.191E-07
       181.805046       85.495823      774.041822    26     0     0     0     7   4.620 0.382E-73 0.765E-73 0.205E-10
       122.167492       39.868017      135.847786    16     0     0     0     2   3.930 0.382E-43 0.765E-43 0.480E-09
        28.770481      129.594643     1067.630109     1     0     0     0     4   1.560 0.382E+02 0.765E+02 0.000E+00
       114.761103      101.063241       80.083514     9     0     0     0     4   3.240 0.382E-22 0.765E-22 0.486E-07
       154.719971       93.712585       72.348555     6     0     0     0     7   2.830 0.382E-13 0.765E-13 0.337E-04
       124.121270       61.993981      212.204042    14     0     0     0     8   3.760 0.382E-37 0.765E-37 0.127E-08
        88.474965       34.211840      298.612400     9     0     0     0     1   3.240 0.382E-22 0.765E-22 0.486E-07
       142.314409      191.032037       42.048257    14     0     0     0     6   3.760 0.382E-37 0.765E-37 0.127E-08
        63.453025      190.675142      304.142221    10     0     0     0     8   3.360 0.382E-25 0.765E-25 0.191E-07
       137.376661      191.591577     1037.341946    41     0     0     0     4   5.370 0.382-118 0.765-118 0.173E-11
        11.801688       25.877001     1232.105141     1     0     0     0     4   1.560 0.382E+02 0.765E+02 0.000E+00
       154.114390      184.525554       75.340852    13     0     0     0     1   3.660 0.382E-34 0.765E-34 0.223E-08
        59.832135      196.933926      405.922872    17     0     0     0     6   4.010 0.382E-46 0.765E-46 0.313E-09
        33.380250       50.596240     1668.959994     1     0     0     0     3   1.560 0.382E+02 0.765E+02 0.000E+00
       189.011575      197.446316     1570.504380     1     0     0     0     1   1.560 0.382E+02 0.765E+02 0.000E+00
        63.603926      156.945164     1147.057097     1     0     0     0     6   1.560 0.382E+02 0.765E+02 0.000E+00
       122.011297      186.061425       87.832890    10     0     0     0     2   3.360 0.382E-25 0.765E-25 0.191E-07
       131.934024       99.984532     1591.397158     1     0     0     0     6   1.560 0.382E+02 0.765E+02 0.000E+00
        18.190717      148.746673      336.968478     9     0     0     0     5   3.240 0.382E-22 0.765E-22 0.486E-07
        56.665369      131.034531      433.550702    11     0     0     0     4   3.470 0.382E-28 0.765E-28 0.857E-08
       137.388064       42.145909      116.539994     9     0     0     0     3   3.240 0.382E-22 0.765E-22 0.486E-07
        40.104129      152.146018      746.090082    21     0     0     0     2   4.300 0.382E-58 0.765E-58 0.761E-10
       104.231474      128.312817       47.057942    11     0     0     0     4   3.470 0.382E-28 0.765E-28 0.857E-08
        90.409988       14.959585      315.807017    10     1     0     0     7   3.357 0.000E+00 0.000E+00 0.204E+02
       135.751077      102.916091     1966.064700     1     0     0     0     6   1.560 0.382E+02 0.765E+02 0.000E+00
         2.578653       69.941668     1018.915348    48     0     0     0     5   5.660 0.382-139 0.765-139 0.808E-12
       134.295371      139.322942      167.019906    11     0     0     0     1   3.470 0.382E-28 0.765E-28 0.857E-08
        81.740453       40.801116      619.303770    11     0     0     0     7   3.470 0.382E-28 0.765E-28 0.857E-08
        85.330429       52.827798      649.399830    23     1     0     0     7   4.432 0.000E+00 0.000E+00 0.204E+02
       147.011756      187.597028      659.470206    20     0     0     0     4   4.230 0.382E-55 0.765E-55 0.105E-09
       191.388071      181.601721     1256.036941     1     0     0     0     5   1.560 0.382E+02 0.765E+02 0.000E+00
       156.833165       82.166430      500.425169    12     1     0     0     3   3.568 0.000E+00 0.000E+00 0.204E+02
        11.897631       96.102907      270.102150    14     0     0     0     5   3.760 0.382E-37 0.765E-37 0.127E-08
        38.052992      144.469370      277.458803    16     0     0     0     7   3.930 0.382E-43 0.765E-43 0.480E-09
       117.318408      117.789184      106.004935    11     0     0     0     1   3.470 0.382E-28 0.765E-28 0.857E-08
       142.612601       90.583691     1186.188609     1     0     0     0     4   1.560 0.382E+02 0.765E+02 0.000E+00
       123.896019       60.025816       67.631162     8     0     0     0     3   3.120 0.382E-19 0.765E-19 0.472E-04
        74.125379      186.008205      224.895500    15     0     0     0     4   3.840 0.382E-40 0.765E-40 0.761E-09
        37.796010      164.756819      163.573743    11     0     0     0     2   3.470 0.382E-28 0.765E-28 0.857E-08
       150.954599        8.995803     2151.696787     1     0     0     0     8   1.560 0.382E+02 0.765E+02 0.000E+00
       111.657822       27.740529     1009.727333     1     0     0     0     8   1.560 0.382E+02 0.765E+02 0.000E+00
       137.206159      159.188233      820.382391    22     0     0     0     8   4.370 0.382E-61 0.765E-61 0.567E-10
        44.812557      149.793031     2252.916336     1     0     0     0     2   1.560 0.382E+02 0.765E+02 0.000E+00
        58.650124      120.214177     1868.278039     1     0     0     0     3   1.560 0.382E+02 0.765E+02 0.000E+00
        37.395648       99.975636      587.599734    12     0     0     0     6   3.570 0.382E-31 0.765E-31 0.422E-08
        88.623267      144.174665       88.564805    12     0     0     0     1   3.570 0.382E-31 0.765E-31 0.422E-08
       174.794023      145.135793      574.364041     7     0     0     0     5   2.980 0.382E-16 0.765E-16 0.745E-03
       196.991117      139.511153      189.150492    12     0     0     0     7   3.570 0.382E-31 0.765E-31 0.422E-08
        54.975127       27.033315       91.402026    14     0     0     0     1   3.760 0.382E-37 0.765E-37 0.127E-08
       198.209488        6.560055      681.309283    23     1     0     0     5   4.432 0.000E+00 0.000E+00 0.204E+02
       139.698075      159.703354      387.870412     8     1     0     0     1   3.117 0.000E+00 0.000E+00 0.204E+02
       146.496027       50.757826       95.220335     8     0     0     0     3   3.120 0.382E-19 0.765E-19 0.472E-04
        21.787236      148.157159      189.561989     6     0     0     0     7   2.830 0.382E-13 0.765E-13 0.337E-04
       197.666948       80.736528      489.120152    16     0     0     0     1   3.930 0.382E-43 0.765E-43 0.480E-09
        58.369825      178.232436       63.643941     9     0     0     0     8   3.240 0.382E-22 0.765E-22 0.486E-07
       136.157686      115.145489      382.870616     6     0     0     0     2   2.830 0.382E-13 0.765E-13 0.337E-04
       185.519586       83.619158       99.297485    12     0     0     0     7   3.570 0.382E-31 0.765E-31 0.422E-08
       113.170984      198.539347       75.422456    19     0     0     0     1   4.160 0.382E-52 0.765E-52 0.147E-09
        85.279327      110.862333      536.933150    13     0     0     0     2   3.660 0.382E-34 0.765E-34 0.223E-08
       149.523570       24.503941      234.071743    10     0     0     0     4   3.360 0.382E-25 0.765E-25 0.191E-07
        37.367311      181.060718      811.704830    20     0     0     0     1   4.230 0.382E-55 0.765E-55 0.105E-09
        29.144327       51.612086      654.601244    14     0     0     0     8   3.760 0.382E-37 0.765E-37 0.127E-08
        99.749110      169.042280      201.817924    13     0     0     0     3   3.660 0.382E-34 0.765E-34 0.223E-08
        51.053699       95.080533      590.963479    27     1     0     0     3   4.675 0.000E+00 0.000E+00 0.204E+02
       149.233474      171.371095      117.226682    22     0     0     0     3   4.370 0.382E-61 0.765E-61 0.567E-10
       171.778902       42.118426      844.098461    12     0     0     0     3   3.570 0.382E-31 0.765E-31 0.422E-08
        13.732802      117.550951      355.985927     6     0     0     0     7   2.830 0.382E-13 0.765E-13 0.337E-04
        16.780316      128.058147     1133.550339     1     0     0     0     2   1.560 0.382E+02 0.765E+02 0.000E+00
        76.230508      149.699902      269.608101    25     1     0     0     3   4.557 0.000E+00 0.000E+00 0.204E+02
       175.505253      198.001789      114.025482    12     0     0     0     5   3.570 0.382E-31 0.765E-31 0.422E-08
        18.077024       95.755857      327.978975    17     0     0     0     7   4.010 0.382E-46 0.765E-46 0.313E-09
       178.642297      131.002360      373.665615    11     0     0     0     8   3.470 0.382E-28 0.765E-28 0.857E-08
       156.979262      132.282533     1118.516633     1     0     0     0     8   1.560 0.382E+02 0.765E+02 0.000E+00
       177.123182      176.968049     2403.824904     1     0     0     0     8   1.560 0.382E+02 0.765E+02 0.000E+00
        69.915281       31.162092      407.321537    11     0     0     0     3   3.470 0.382E-28 0.765E-28 0.857E-08
       154.326464       58.454915      530.595148    13     0     0     0     1   3.660 0.382E-34 0.765E-34 0.223E-08
        90.220910       76.966676     1599.583218     1     0     0     0     8   1.560 0.382E+02 0.765E+02 0.000E+00
       145.892747       26.881914      281.012171     7     0     0     0     7   2.980 0.382E-16 0.765E-16 0.745E-03
        84.970341       81.855445      289.343433    14     0     0     0     1   3.760 0.382E-37 0.765E-37 0.127E-08
       107.792539       50.178326      514.988442     9     0     0     0     8   3.240 0.382E-22 0.765E-22 0.486E-07
        80.422664      138.339351      756.990888    16     1     0     0     7   3.927 0.000E+00 0.000E+00 0.204E+02
        84.213792      164.529367      768.448971    24     0     0     0     7   4.500 0.382E-67 0.765E-67 0.331E-10
        20.240241      165.908759       62.109052    12     0     0     0     8   3.570 0.382E-31 0.765E-31 0.422E-08
       100.498573       41.635112      149.637204     9     0     0     0     7   3.240 0.382E-22 0.765E-22 0.486E-07
       181.665538      199.648883     1977.954661     1     0     0     0     1   1.560 0.382E+02 0.765E+02 0.000E+00
       106.714050       57.674233     1413.612068     1     0     0     0     7   1.560 0.382E+02 0.765E+02 0.000E+00
        94.867854       38.770102       46.299938    14     0     0     0     5   3.760 0.382E-37 0.765E-37 0.127E-08
        79.937502       73.020575      210.341197    21     0     0     0     2   4.300 0.382E-58 0.765E-58 0.761E-10
       118.756428       77.532862      163.896739    17     0     0     0     6   4.010 0.382E-46 0.765E-46 0.313E-09
        70.900000      109.790062     2218.968093     1     0     0     0     4   1.560 0.382E+02 0.765E+02 0.000E+00
       196.855819      130.746666      151.344618    13     0     0     0     3   3.660 0.382E-34 0.765E-34 0.223E-08
        20.533618       83.983208       73.034931    10     0     0     0     6   3.360 0.382E-25 0.765E-25 0.191E-07
        91.555690      168.567916       66.232380    16     0     0     0     1   3.930 0.382E-43 0.765E-43 0.480E-09
       147.232439      155.953909      174.482297    10     0     0     0     3   3.360 0.382E-25 0.765E-25 0.191E-07
       125.251883       48.286411      660.119129    27     1     0     0     1   4.675 0.000E+00 0.000E+00 0.204E+02
        79.525387      166.645840       31.563814     6     0     0     0     3   2.830 0.382E-13 0.765E-13 0.337E-04
        16.698661      154.469899      359.965798    10     0     0     0     7   3.360 0.382E-25 0.765E-25 0.191E-07
        45.405229        4.051582      284.065301     6     0     0     0     5   2.830 0.382E-13 0.765E-13 0.337E-04
        83.069466       91.154192      385.800169    10     0     0     0     4   3.360 0.382E-25 0.765E-25 0.191E-07
       133.523235      128.058272      873.589551    16     1     0     0     6   3.927 0.000E+00 0.000E+00 0.204E+02
       116.469202       70.550058      668.714295    10     0     0     0     2   3.360 0.382E-25 0.765E-25 0.191E-07
       135.710094       97.828391      111.256665    10     0     0     0     4   3.360 0.382E-25 0.765E-25 0.191E-07
       123.004743       88.185741     1699.884118     1     0     0     0     1   1.560 0.382E+02 0.765E+02 0.000E+00
       131.526284      116.134378      460.222683    12     0     0     0     1   3.570 0.382E-31 0.765E-31 0.422E-08
        20.166810      162.986807      558.626618    11     0     0     0     3   3.470 0.382E-28 0.765E-28 0.857E-08
       182.339901      169.537541      304.966291    15     0     0     0     6   3.840 0.382E-40 0.765E-40 0.761E-09
       187.804135       88.098847      320.517775    12     0     0     0     6   3.570 0.382E-31 0.765E-31 0.422E-08
        78.912266       17.473473      338.143712    13     1     0     0     6   3.664 0.000E+00 0.000E+00 0.189E+01
       145.937555        1.583386      388.653396     6     0     0     0     3   2.830 0.382E-13 0.765E-13 0.337E-04
        87.842438      153.957927      569.539367    19     0     0     0     4   4.160 0.382E-52 0.765E-52 0.147E-09
       188.134533       74.787424      175.262033    17     0     0     0     2   4.010 0.382E-46 0.765E-46 0.313E-09
       165.927880       83.647822      344.094978    16     0     0     0     3   3.930 0.382E-43 0.765E-43 0.480E-09
       197.538456      184.127976     1468.118849     1     0     0     0     4   1.560 0.382E+02 0.765E+02 0.000E+00
        23.019474       54.109649     1414.459991     1     0     0     0     4   1.560 0.382E+02 0.765E+02 0.000E+00
       188.094322      187.147119      428.851439     8     0     0     0     7   3.120 0.382E-19 0.765E-19 0.472E-04
        64.556375       46.922439      388.368970    11     0     0     0     8   3.470 0.382E-28 0.765E-28 0.857E-08
        74.953408       16.705855      123.657347     8     0     0     0     2   3.120 0.382E-19 0.765E-19 0.472E-04
       124.061450       21.551468     1244.232683     1     0     0     0     4   1.560 0.382E+02 0.765E+02 0.000E+00
       180.465040       23.986878     1363.459999     1     0     0     0     2   1.560 0.382E+02 0.765E+02 0.000E+00
       122.525432       82.015777      280.043208    15     0     0     0     7   3.840 0.382E-40 0.765E-40 0.761E-09
        43.347867      174.956552      484.157785    23     0     0     0     2   4.430 0.382E-64 0.765E-64 0.428E-10
        15.099602       78.839043     1881.676526     1     0     0     0     3   1.560 0.382E+02 0.765E+02 0.000E+00
       193.729080       76.270517      375.330694     8     0     0     0     4   3.120 0.382E-19 0.765E-19 0.472E-04
       194.942997       13.842474        8.725081     5     0     0     0     8   2.660 0.382E-10 0.765E-10 0.139E-02
       196.406185       81.005835      556.198413    15     0     0     0     2   3.840 0.382E-40 0.765E-40 0.761E-09
       182.278489       50.264136     1451.493301     1     0     0     0     4   1.560 0.382E+02 0.765E+02 0.000E+00
       168.950532       25.846781      425.365814    12     0     0     0     8   3.570 0.382E-31 0.765E-31 0.422E-08
        80.392847       69.831119      990.021822     1     0     0     0     2   1.560 0.382E+02 0.765E+02 0.000E+00
        79.880707      149.743571      424.642667    12     0     0     0     1   3.570 0.382E-31 0.765E-31 0.422E-08
       136.075863       68.143825     1569.583076     1     0     0     0     8   1.560 0.382E+02 0.765E+02 0.000E+00
        70.462996        1.567794      126.675654    12     0     0     0     3   3.570 0.382E-31 0.765E-31 0.422E-08
        44.320441       51.839916      773.015850    24     0     0     0     8   4.500 0.382E-67 0.765E-67 0.331E-10
        42.085409       15.425974      513.798196    13     2     0     0     8   3.664 0.000E+00 0.000E+00 0.326E+02
        78.005218      183.157072      213.472464     5     0     0     0     8   2.660 0.382E-10 0.765E-10 0.139E-02
       131.003527      135.578536      417.679856    15     0     0     0     3   3.840 0.382E-40 0.765E-40 0.761E-09
        52.219393      139.444632      974.397276     1     0     0     0     3   1.560 0.382E+02 0.765E+02 0.000E+00
        29.151122        2.868140      960.446513    25     1     0     0     6   4.557 0.000E+00 0.000E+00 0.204E+02
       142.025835       25.090515      831.189079    14     0     0     0     3   3.760 0.382E-37 0.765E-37 0.127E-08
       172.909563      124.022744      340.917032    13     1     0     0     3   3.664 0.000E+00 0.000E+00 0.189E+01
         7.379329      175.715167      457.081692    19     0     0     0     8   4.160 0.382E-52 0.765E-52 0.147E-09
        63.090243        4.810164      365.906754    19     0     0     0     6   4.160 0.382E-52 0.765E-52 0.147E-09
        97.336762       50.332089     1194.547365     1     0     0     0     1   1.560 0.382E+02 0.765E+02 0.000E+00
       194.970010      180.427665      386.196369    15     0     0     0     1   3.840 0.382E-40 0.765E-40 0.761E-09
        36.360304       69.880422      158.509075    10     0     0     0     8   3.360 0.382E-25 0.765E-25 0.191E-07
       195.455775      125.524487     1588.450766     1     0     0     0     4   1.560 0.382E+02 0.765E+02 0.000E+00
        84.776346       17.674247      857.278091    24     0     0     0     6   4.500 0.382E-67 0.765E-67 0.331E-10
        63.514784        9.564383      426.956287     9     0     0     0     4   3.240 0.382E-22 0.765E-22 0.486E-07
        32.751345        2.665640      993.082204     1     0     0     0     5   1.560 0.382E+02 0.765E+02 0.000E+00
        83.675030       86.362751      489.752464    17     0     0     0     2   4.010 0.382E-46 0.765E-46 0.313E-09
        86.620927      153.975224      121.417730    11     1     0     0     6   3.466 0.000E+00 0.000E+00 0.204E+02
        32.823934       23.032189      293.747106     7     0     0     0     3   2.980 0.382E-16 0.765E-16 0.745E-03
        20.352017       86.342668      700.363096    13     1     0     0     7   3.664 0.000E+00 0.000E+00 0.189E+01
        83.578519      100.506524      290.298083    11     0     0     0     5   3.470 0.382E-28 0.765E-28 0.857E-08
       185.653702       33.368032      162.772698     6     0     0     0     6   2.830 0.382E-13 0.765E-13 0.337E-04
       185.426611       31.295317      486.032669    18     0     0     0     5   4.080 0.382E-49 0.765E-49 0.211E-09
        50.462968      182.691284      871.456278    34     1     0     0     4   5.048 0.000E+00 0.000E+00 0.204E+02
        20.945797       75.049621     1940.089705     1     0     0     0     4   1.560 0.382E+02 0.765E+02 0.000E+00
       197.314632       79.041790      128.483059     7     0     0     0     1   2.980 0.382E-16 0.765E-16 0.745E-03
       192.681945       49.246727       64.439787    14     1     0     0     6   3.756 0.000E+00 0.000E+00 0.204E+02
        73.355144       49.384620      195.987254     5     0     0     0     4   2.660 0.382E-10 0.765E-10 0.139E-02
        98.397389      180.574908      491.148852    18     0     0     0     4   4.080 0.382E-49 0.765E-49 0.211E-09
        37.551451       82.517051     1431.011901     1     0     0     0     8   1.560 0.382E+02 0.765E+02 0.000E+00
       166.500899       84.496367      769.340898    20     0     0     0     6   4.230 0.382E-55 0.765E-55 0.105E-09
       156.951282      111.389702      216.727265    19     0     0     0     2   4.160 0.382E-52 0.765E-52 0.147E-09
         3.383076        8.990276       94.711516    24     0     0     0     8   4.500 0.382E-67 0.765E-67 0.331E-10
        87.289589       64.997570      464.838703    14     0     0     0     8   3.760 0.382E-37 0.765E-37 0.127E-08
        56.129533      122.381657      155.283408     9     0     0     0     1   3.240 0.382E-22 0.765E-22 0.486E-07
       184.077770      140.936398      585.808387    15     0     0     0     3   3.840 0.382E-40 0.765E-40 0.761E-09
       141.000889       92.088975     1991.595512     1     0     0     0     1   1.560 0.382E+02 0.765E+02 0.000E+00
       119.343147       98.027318       54.225113     9     0     0     0     8   3.240 0.382E-22 0.765E-22 0.486E-07
        65.012992      172.485156      348.296064    16     0     0     0     1   3.930 0.382E-43 0.765E-43 0.480E-09
       120.798679       84.049069     1566.311388     1     0     0     0     2   1.560 0.382E+02 0.765E+02 0.000E+00
       190.684614      172.435448      609.646305    15     1     0     0     7   3.843 0.000E+00 0.000E+00 0.931E+02
       138.248213       95.792369      529.222476    14     0     0     0     2   3.760 0.382E-37 0.765E-37 0.127E-08
       130.363798        4.167890      380.887033     9     0     0     0     4   3.240 0.382E-22 0.765E-22 0.486E-07
       116.319436      197.730605     1451.898453     1     0     0     0     1   1.560 0.382E+02 0.765E+02 0.000E+00
        33.229912      114.915526      166.901534    14     0     0     0     7   3.760 0.382E-37 0.765E-37 0.127E-08
       183.365511       87.875195       66.529253     9     0     0     0     3   3.240 0.382E-22 0.765E-22 0.486E-07
       101.630774      133.600193      274.102567    11     0     0     0     4   3.470 0.382E-28 0.765E-28 0.857E-08
         9.034998       29.961261      372.519227    12     0     0     0     4   3.570 0.382E-31 0.765E-31 0.422E-08
        48.196465       29.298586     2123.363958     1     0     0     0     5   1.560 0.382E+02 0.765E+02 0.000E+00
       131.024633      110.421748      159.034370    10     0     0     0     1   3.360 0.382E-25 0.765E-25 0.191E-07
       106.579410      102.054590       59.121998     6     0     0     0     4   2.830 0.382E-13 0.765E-13 0.337E-04
       132.343875       33.120957     1176.365443     1     0     0     0     5   1.560 0.382E+02 0.765E+02 0.000E+00
       192.165730      135.997317      620.823106    22     0     0     0     6   4.370 0.382E-61 0.765E-61 0.567E-10
        53.338135      166.090188      341.611804     6     1     0     0     6   2.832 0.000E+00 0.000E+00 0.205E+02
       141.897536       63.343014      565.356000    13     1     0     0     1   3.664 0.000E+00 0.000E+00 0.189E+01
        74.654327      187.007876      576.504350    21     0     0     0     8   4.300 0.382E-58 0.765E-58 0.761E-10
        28.203926      129.490720     1264.906353     1     0     0     0     6   1.560 0.382E+02 0.765E+02 0.000E+00
        66.581329      110.348930      239.755886     8     0     0     0     3   3.120 0.382E-19 0.765E-19 0.472E-04
       112.021746      141.045118      956.879904     1     0     0     0     8   1.560 0.382E+02 0.765E+02 0.000E+00
        82.745734       43.708690     1381.238605     1     0     0     0     4   1.560 0.382E+02 0.765E+02 0.000E+00
       158.733123      142.426843       92.670934     9     0     0     0     5   3.240 0.382E-22 0.765E-22 0.486E-07
        52.189601       96.775709      434.766350    15     0     0     0     6   3.840 0.382E-40 0.765E-40 0.761E-09
       199.163015      173.442876      465.234410    12     0     0     0     4   3.570 0.382E-31 0.765E-31 0.422E-08
        87.167441      168.430487       78.865369     8     0     0     0     2   3.120 0.382E-19 0.765E-19 0.472E-04
        18.653370      154.688018     1939.701233     1     0     0     0     6   1.560 0.382E+02 0.765E+02 0.000E+00