ITEM: TIMESTEP
0
ITEM: NUMBER OF ATOMS
         521
ITEM: BOX BOUNDS pp pp pp
  0.0000000E+00   200.000000000000     
  0.0000000E+00   200.000000000000     
  0.0000000E+00   5000.00000000000     
ITEM: ATOMS x y z f1 f2 f3 f4 orient radius rate_mig rate_rot rate_emit
       198.013995      115.722236      265.876575    14     0     0     0     3   3.760 0.523E-37 0.105E-36 0.242E-08
         3.756312      113.994514      366.505533     9     0     0     0     7   3.240 0.523E-22 0.105E-21 0.881E-07
       169.052109      196.788574     1401.650706     1     0     0     0     3   1.560 0.523E+02 0.105E+03 0.000E+00
        70.045518       74.629019     1407.214861     1     0     0     0     6   1.560 0.523E+02 0.105E+03 0.000E+00
        88.623267      144.174665       88.564805    12     0     0     0     1   3.570 0.523E-31 0.105E-30 0.790E-08
        57.483120       95.859722       70.969911    10     0     0     0     8   3.360 0.523E-25 0.105E-24 0.350E-07
        62.596376      142.325975      174.362461    17     0     0     0     3   4.010 0.523E-46 0.105E-45 0.606E-09
        76.507429      126.945405      222.564160    15     0     0     0     3   3.840 0.523E-40 0.105E-39 0.146E-08
       124.106070      177.467263      339.654389     7     0     0     0     4   2.980 0.523E-16 0.105E-15 0.119E-02
        44.320441       51.839916      773.015850    24     0     0     0     1   4.500 0.523E-67 0.105E-66 0.661E-10
       178.167335      159.217288       40.589806     7     0     0     0     7   2.980 0.523E-16 0.105E-15 0.119E-02
        51.053699       95.080533      590.963479    27     0     0     0     3   4.680 0.523E-76 0.105E-75 0.331E-10
       134.742549      198.787342      189.410627    13     0     0     0     6   3.660 0.523E-34 0.105E-33 0.422E-08
        71.636003       65.352601      431.119106    18     0     0     0     7   4.080 0.523E-49 0.105E-48 0.411E-09
       116.093904       28.390559       28.726266     9     0     0     0     8   3.240 0.523E-22 0.105E-21 0.881E-07
        26.273225       64.994218     1499.069700     1     0     0     0     7   1.560 0.523E+02 0.105E+03 0.000E+00
        57.638696      143.549781     1181.406285     1     0     0     0     3   1.560 0.523E+02 0.105E+03 0.000E+00
       191.645150      195.307816      230.540179    16     0     0     0     5   3.930 0.523E-43 0.105E-42 0.925E-09
        63.585400      127.145171      101.709727    11     0     0     0     3   3.470 0.523E-28 0.105E-27 0.159E-07
       192.128692      144.801900     1651.714726     1     0     0     0     3   1.560 0.523E+02 0.105E+03 0.000E+00
       199.163015      173.442876      465.234410    12     0     0     0     5   3.570 0.523E-31 0.105E-30 0.790E-08
        32.192202      118.320390      682.922112    13     0     0     0     5   3.660 0.523E-34 0.105E-33 0.422E-08
        54.975127       27.033315       91.402026    14     0     0     0     3   3.760 0.523E-37 0.105E-36 0.242E-08
       191.388071      159.445673     1189.568798     1     0     0     0     6   1.560 0.523E+02 0.105E+03 0.000E+00
       191.647004      106.957208       41.023411    14     0     0     0     8   3.760 0.523E-37 0.105E-36 0.242E-08
       119.683276      138.166468     1214.347239     1     0     0     0     7   1.560 0.523E+02 0.105E+03 0.000E+00
       150.734745       44.339680      539.575542    12     0     0     0     8   3.570 0.523E-31 0.105E-30 0.790E-08
        20.352017       86.342668      700.363096    13     0     0     0     6   3.660 0.523E-34 0.105E-33 0.422E-08
        87.289589       64.997570      464.838703    14     0     0     0     1   3.760 0.523E-37 0.105E-36 0.242E-08
        85.048966       55.698511      337.603253    10     0     0     0     2   3.360 0.523E-25 0.105E-24 0.350E-07
       180.928504       22.893776      498.095555    14     0     0     0     1   3.760 0.523E-37 0.105E-36 0.242E-08
       102.259066      137.264317      148.036978    12     0     0     0     3   3.570 0.523E-31 0.105E-30 0.790E-08
       124.121270       61.993981      212.204042    14     0     0     0     5   3.760 0.523E-37 0.105E-36 0.242E-08
         2.470076        0.330357      180.536418     8     0     0     0     3   3.120 0.523E-19 0.105E-18 0.783E-04
        53.686581       88.143623      695.932070    19     0     0     0     5   4.160 0.523E-52 0.105E-51 0.287E-09
        37.395648       99.975636      587.599734    12     0     0     0     5   3.570 0.523E-31 0.105E-30 0.790E-08
         3.183738       87.720472      301.069663     8     0     0     0     2   3.120 0.523E-19 0.105E-18 0.783E-04
        20.166810      162.986807      558.626618    11     0     0     0     8   3.470 0.523E-28 0.105E-27 0.159E-07
        66.581329      110.348930      239.755886     8     0     0     0     1   3.120 0.523E-19 0.105E-18 0.783E-04
        97.803772       67.060542     2309.174858     1     0     0     0     2   1.560 0.523E+02 0.105E+03 0.000E+00
        18.190717      148.746673      336.968478     9     0     0     0     4   3.240 0.523E-22 0.105E-21 0.881E-07
       157.880213       13.190712       30.079589     8     0     0     0     2   3.120 0.523E-19 0.105E-18 0.783E-04
       140.868877      169.196742     1769.653733     1     0     0     0     1   1.560 0.523E+02 0.105E+03 0.000E+00
        46.419925       25.743459      461.306305    10     0     0     0     3   3.360 0.523E-25 0.105E-24 0.350E-07
        72.408778       44.672031      517.991661    18     0     0     0     2   4.080 0.523E-49 0.105E-48 0.411E-09
        22.714088      144.462924     1331.055462     1     0     0     0     1   1.560 0.523E+02 0.105E+03 0.000E+00
       156.144721       56.550525      237.821346    10     0     0     0     7   3.360 0.523E-25 0.105E-24 0.350E-07
       174.262103       11.442293     1208.156032     1     0     0     0     8   1.560 0.523E+02 0.105E+03 0.000E+00
       188.473495      156.526352      960.539157    22     0     0     0     4   4.370 0.523E-61 0.105E-60 0.112E-09
        74.651841       10.524273      640.671566    20     0     0     0     1   4.230 0.523E-55 0.105E-54 0.206E-09
        12.959783      160.492750       94.339551     8     0     0     0     5   3.120 0.523E-19 0.105E-18 0.783E-04
       126.138569       54.533245      341.234920    10     0     0     0     3   3.360 0.523E-25 0.105E-24 0.350E-07
       151.854268       39.104718      917.642877    31     0     0     0     8   4.900 0.523E-88 0.105E-87 0.153E-10
        72.935096      195.157005      282.490223     6     0     0     0     6   2.830 0.523E-13 0.105E-12 0.562E-04
        83.675030       86.362751      489.752464    17     0     0     0     3   4.010 0.523E-46 0.105E-45 0.606E-09
       166.125776       65.660130     1084.706925     1     0     0     0     6   1.560 0.523E+02 0.105E+03 0.000E+00
       189.625262       48.658551       51.156701    14     0     0     0     8   3.760 0.523E-37 0.105E-36 0.242E-08
        79.880707      149.743571      424.642667    12     0     0     0     2   3.570 0.523E-31 0.105E-30 0.790E-08
       164.969134       57.629101       91.534164    11     0     0     0     5   3.470 0.523E-28 0.105E-27 0.159E-07
       116.105942        4.551717      458.572817     9     0     0     0     5   3.240 0.523E-22 0.105E-21 0.881E-07
       106.199210      145.446176      375.731000    11     0     0     0     8   3.470 0.523E-28 0.105E-27 0.159E-07
        33.229912      114.915526      166.901534    14     0     0     0     6   3.760 0.523E-37 0.105E-36 0.242E-08
       147.232439      155.953909      174.482297    10     0     0     0     7   3.360 0.523E-25 0.105E-24 0.350E-07
        19.421366      119.731391     1590.650437     1     0     0     0     3   1.560 0.523E+02 0.105E+03 0.000E+00
       194.668841      150.114210     1449.124534     1     0     0     0     2   1.560 0.523E+02 0.105E+03 0.000E+00
       167.800373      167.717694       27.241053    11     0     0     0     7   3.470 0.523E-28 0.105E-27 0.159E-07
        87.342548      180.683787     1069.510931     1     0     0     0     6   1.560 0.523E+02 0.105E+03 0.000E+00
        18.127543       94.779726     2213.570723     1     0     0     0     1   1.560 0.523E+02 0.105E+03 0.000E+00
        45.234459      178.016434     1296.982010     1     0     0     0     8   1.560 0.523E+02 0.105E+03 0.000E+00
         5.003072       13.858445     1317.895603     1     0     0     0     6   1.560 0.523E+02 0.105E+03 0.000E+00
       154.719971       93.712585       72.348555     6     0     0     0     5   2.830 0.523E-13 0.105E-12 0.562E-04
        28.442428       61.156591     1650.861428     1     0     0     0     3   1.560 0.523E+02 0.105E+03 0.000E+00
       156.294016        8.339443      228.344728     6     0     0     0     7   2.830 0.523E-13 0.105E-12 0.562E-04
       187.568434       38.211364      444.540435     9     0     0     0     8   3.240 0.523E-22 0.105E-21 0.881E-07
       137.388064       42.145909      116.539994     9     0     0     0     7   3.240 0.523E-22 0.105E-21 0.881E-07
       168.245356      125.321838       79.504564     9     0     0     0     5   3.240 0.523E-22 0.105E-21 0.881E-07
       119.343147       98.027318       54.225113     9     0     0     0     5   3.240 0.523E-22 0.105E-21 0.881E-07
        63.179090       90.364013     1850.650958     1     0     0     0     3   1.560 0.523E+02 0.105E+03 0.000E+00
        33.437571      169.836582     1680.240106     1     0     0     0     4   1.560 0.523E+02 0.105E+03 0.000E+00
        44.510499       36.679824      216.992032     9     0     0     0     2   3.240 0.523E-22 0.105E-21 0.881E-07
       122.726659       38.649775      783.797179    24     0     0     0     5   4.500 0.523E-67 0.105E-66 0.661E-10
       197.666948       80.736528      489.120152    16     0     0     0     6   3.930 0.523E-43 0.105E-42 0.925E-09
       145.937555        1.583386      388.653396     6     0     0     0     7   2.830 0.523E-13 0.105E-12 0.562E-04
       174.540021      182.971298      217.515010    10     0     0     0     6   3.360 0.523E-25 0.105E-24 0.350E-07
         1.167869      171.295007     1114.972742     1     0     0     0     2   1.560 0.523E+02 0.105E+03 0.000E+00
       106.579410      102.054590       59.121998     6     0     0     0     8   2.830 0.523E-13 0.105E-12 0.562E-04
        93.070350       90.751212      911.882230    45     0     0     0     8   5.540 0.523-130 0.105-129 0.229E-11
       142.314409      191.032037       42.048257    14     0     0     0     6   3.760 0.523E-37 0.105E-36 0.242E-08
       117.318408      117.789184      106.004935    11     0     0     0     7   3.470 0.523E-28 0.105E-27 0.159E-07
        85.279327      110.862333      536.933150    13     0     0     0     5   3.660 0.523E-34 0.105E-33 0.422E-08
        58.487605      198.702774      218.865639    11     0     0     0     2   3.470 0.523E-28 0.105E-27 0.159E-07
        84.776346       17.674247      857.278091    24     0     0     0     3   4.500 0.523E-67 0.105E-66 0.661E-10
       167.599592       13.913029      255.831142     7     0     0     0     6   2.980 0.523E-16 0.105E-15 0.119E-02
        54.179868       82.962495     1970.158627     1     0     0     0     1   1.560 0.523E+02 0.105E+03 0.000E+00
        78.005218      183.157072      213.472464     5     0     0     0     4   2.660 0.523E-10 0.105E-09 0.221E-02
       172.909563      124.022744      340.917032    13     0     0     0     6   3.660 0.523E-34 0.105E-33 0.422E-08
        19.852702       67.174814     2380.086282     1     0     0     0     8   1.560 0.523E+02 0.105E+03 0.000E+00
        20.767108       96.913853     1892.425510     1     0     0     0     1   1.560 0.523E+02 0.105E+03 0.000E+00
       121.505775       77.229141      395.522477    14     0     0     0     8   3.760 0.523E-37 0.105E-36 0.242E-08
        79.937502       73.020575      210.341197    21     0     0     0     8   4.300 0.523E-58 0.105E-57 0.150E-09
       154.114390      184.525554       75.340852    13     1     0     0     6   3.664 0.000E+00 0.000E+00 0.277E+01
        91.555690      168.567916       66.232380    16     0     0     0     7   3.930 0.523E-43 0.105E-42 0.925E-09
       135.710094       97.828391      111.256665    10     0     0     0     4   3.360 0.523E-25 0.105E-24 0.350E-07
       182.339901      169.537541      304.966291    15     0     0     0     6   3.840 0.523E-40 0.105E-39 0.146E-08
        14.297527      191.558534      818.868754    16     0     0     0     2   3.930 0.523E-43 0.105E-42 0.925E-09
        61.523283       64.260821      107.500323    18     0     0     0     2   4.080 0.523E-49 0.105E-48 0.411E-09
       119.321449      132.583506      491.061640    13     2     0     0     4   3.664 0.000E+00 0.000E+00 0.464E+02
       171.301235       13.325626      727.615671    19     0     0     0     3   4.160 0.523E-52 0.105E-51 0.287E-09
       188.134533       74.787424      175.262033    17     0     0     0     3   4.010 0.523E-46 0.105E-45 0.606E-09
        42.085409       15.425974      513.798196    13     1     0     0     4   3.664 0.000E+00 0.000E+00 0.277E+01
       146.496027       50.757826       95.220335     8     0     0     0     7   3.120 0.523E-19 0.105E-18 0.783E-04
       158.619432       76.161732      107.038533    11     0     0     0     6   3.470 0.523E-28 0.105E-27 0.159E-07
         2.578653       69.941668     1018.915348    48     0     0     0     1   5.660 0.523-139 0.105-138 0.170E-11
        27.083587       16.609617      372.239203     9     0     0     0     1   3.240 0.523E-22 0.105E-21 0.881E-07
       163.796681      124.932164     1369.604562     1     0     0     0     8   1.560 0.523E+02 0.105E+03 0.000E+00
        15.682019       88.020786     1406.559802     1     0     0     0     5   1.560 0.523E+02 0.105E+03 0.000E+00
       137.206159      159.188233      820.382391    22     0     0     0     6   4.370 0.523E-61 0.105E-60 0.112E-09
        81.740453       40.801116      619.303770    11     1     0     0     2   3.466 0.000E+00 0.000E+00 0.291E+02
        40.104129      152.146018      746.090082    21     0     0     0     1   4.300 0.523E-58 0.105E-57 0.150E-09
       175.627854      157.578414     1585.889044     1     0     0     0     4   1.560 0.523E+02 0.105E+03 0.000E+00
       131.024633      110.421748      159.034370    10     0     0     0     1   3.360 0.523E-25 0.105E-24 0.350E-07
       192.614047       24.506453     1306.928829     1     0     0     0     8   1.560 0.523E+02 0.105E+03 0.000E+00
       100.966319      147.377285      966.283199     1     0     0     0     2   1.560 0.523E+02 0.105E+03 0.000E+00
         3.383076        8.990276       94.711516    24     0     0     0     1   4.500 0.523E-67 0.105E-66 0.661E-10
       190.684614      172.435448      609.646305    15     0     0     0     5   3.840 0.523E-40 0.105E-39 0.146E-08
       151.021783      152.586119      294.513082     9     0     0     0     1   3.240 0.523E-22 0.105E-21 0.881E-07
       128.521456       37.636727     1585.757102     1     0     0     0     2   1.560 0.523E+02 0.105E+03 0.000E+00
       166.114386      105.179211     2458.457064     1     0     0     0     5   1.560 0.523E+02 0.105E+03 0.000E+00
       184.077770      140.936398      585.808387    15     0     0     0     8   3.840 0.523E-40 0.105E-39 0.146E-08
       184.491451      157.138314      320.519125    12     0     0     0     3   3.570 0.523E-31 0.105E-30 0.790E-08
        20.137379      146.741010     1704.631843     1     0     0     0     4   1.560 0.523E+02 0.105E+03 0.000E+00
       121.536020       67.279519     1306.460577     1     0     0     0     7   1.560 0.523E+02 0.105E+03 0.000E+00
       101.224175      186.258487      221.090993    14     0     0     0     8   3.760 0.523E-37 0.105E-36 0.242E-08
         6.634799       20.574716      319.401105    14     1     0     0     5   3.756 0.000E+00 0.000E+00 0.291E+02
       165.491517       13.209672     1279.806299     1     0     0     0     4   1.560 0.523E+02 0.105E+03 0.000E+00
       105.430209      157.253403      351.959250    12     0     0     0     5   3.570 0.523E-31 0.105E-30 0.790E-08
        23.171388      155.084804       97.864350    17     0     0     0     7   4.010 0.523E-46 0.105E-45 0.606E-09
       163.677882        1.316962      411.970771     8     0     0     0     8   3.120 0.523E-19 0.105E-18 0.783E-04
       192.962319      109.660876     1767.690967     1     0     0     0     3   1.560 0.523E+02 0.105E+03 0.000E+00
        84.213792      164.529367      768.448971    24     0     0     0     7   4.500 0.523E-67 0.105E-66 0.661E-10
        20.240241      165.908759       62.109052    12     0     0     0     8   3.570 0.523E-31 0.105E-30 0.790E-08
        80.422664      138.339351      756.990888    16     1     0     0     5   3.927 0.000E+00 0.000E+00 0.290E+02
       196.855819      130.746666      151.344618    13     0     0     0     7   3.660 0.523E-34 0.105E-33 0.422E-08
        55.464128       26.318221     2227.159904     1     0     0     0     3   1.560 0.523E+02 0.105E+03 0.000E+00
       120.531350       69.535966      495.664905     9     0     0     0     7   3.240 0.523E-22 0.105E-21 0.881E-07
       148.646724       11.381769      118.995798    10     0     0     0     7   3.360 0.523E-25 0.105E-24 0.350E-07
       180.158755      191.942447      191.116486    14     0     0     0     6   3.760 0.523E-37 0.105E-36 0.242E-08
       134.691756       73.108936      514.584422    20     0     0     0     8   4.230 0.523E-55 0.105E-54 0.206E-09
        84.381127      193.194324      395.657210    13     0     0     0     5   3.660 0.523E-34 0.105E-33 0.422E-08
        79.525387      166.645840       31.563814     6     0     0     0     3   2.830 0.523E-13 0.105E-12 0.562E-04
       117.314156       26.131784      435.918395    14     0     0     0     8   3.760 0.523E-37 0.105E-36 0.242E-08
        88.474965       34.211840      298.612400     9     0     0     0     5   3.240 0.523E-22 0.105E-21 0.881E-07
       196.991117      139.511153      189.150492    12     1     0     0     7   3.568 0.000E+00 0.000E+00 0.291E+02
       166.500899       84.496367      769.340898    20     0     0     0     6   4.230 0.523E-55 0.105E-54 0.206E-09
       131.003527      135.578536      417.679856    15     0     0     0     6   3.840 0.523E-40 0.105E-39 0.146E-08
       185.653702       33.368032      162.772698     6     0     0     0     2   2.830 0.523E-13 0.105E-12 0.562E-04
       146.713585       89.517926     1389.149822     1     0     0     0     2   1.560 0.523E+02 0.105E+03 0.000E+00
       156.156103      158.149974      228.244611    11     0     0     0     5   3.470 0.523E-28 0.105E-27 0.159E-07
       199.498014      176.036191      779.627938    12     1     0     0     1   3.568 0.000E+00 0.000E+00 0.291E+02
       146.706692      119.683645       51.726415     7     0     0     0     6   2.980 0.523E-16 0.105E-15 0.119E-02
        43.347867      174.956552      484.157785    23     1     0     0     6   4.432 0.000E+00 0.000E+00 0.290E+02
        78.598859      167.990788      458.894882    24     0     0     0     2   4.500 0.523E-67 0.105E-66 0.661E-10
        63.514784        9.564383      426.956287     9     0     0     0     5   3.240 0.523E-22 0.105E-21 0.881E-07
       105.412705      181.900153      465.141268    20     0     0     0     1   4.230 0.523E-55 0.105E-54 0.206E-09
       112.310470      190.374464      340.845641     8     0     0     0     7   3.120 0.523E-19 0.105E-18 0.783E-04
       107.241435      185.862471      919.769564     1     0     0     0     2   1.560 0.523E+02 0.105E+03 0.000E+00
       180.262072       13.780339     1036.910937     1     0     0     0     3   1.560 0.523E+02 0.105E+03 0.000E+00
       179.229407       94.757735     1165.775574     1     0     0     0     6   1.560 0.523E+02 0.105E+03 0.000E+00
        33.819008      185.434281      627.026582    16     0     0     0     4   3.930 0.523E-43 0.105E-42 0.925E-09
        99.879317       42.650675      552.217052    18     0     0     0     4   4.080 0.523E-49 0.105E-48 0.411E-09
       134.295371      139.322942      167.019906    11     0     0     0     1   3.470 0.523E-28 0.105E-27 0.159E-07
       157.306067       21.139600     1715.074889     1     0     0     0     7   1.560 0.523E+02 0.105E+03 0.000E+00
       173.474004       83.634265     1199.431763     1     0     0     0     4   1.560 0.523E+02 0.105E+03 0.000E+00
       107.792539       50.178326      514.988442     9     0     0     0     4   3.240 0.523E-22 0.105E-21 0.881E-07
        24.338822      145.890440      575.854648    15     0     0     0     2   3.840 0.523E-40 0.105E-39 0.146E-08
        87.136471      107.553578     1874.608338     1     0     0     0     2   1.560 0.523E+02 0.105E+03 0.000E+00
       196.950773      178.570311      457.167124    11     0     0     0     2   3.470 0.523E-28 0.105E-27 0.159E-07
       194.942997       13.842474        8.725081     5     0     0     0     8   2.660 0.523E-10 0.105E-09 0.221E-02
       120.053956       52.522876      703.534843    22     0     0     0     6   4.370 0.523E-61 0.105E-60 0.112E-09
        49.351751      199.911892      323.751254     8     0     0     0     1   3.120 0.523E-19 0.105E-18 0.783E-04
       152.072785       68.217921      618.151799    21     0     0     0     6   4.300 0.523E-58 0.105E-57 0.150E-09
       138.248213       95.792369      529.222476    14     0     0     0     7   3.760 0.523E-37 0.105E-36 0.242E-08
       132.145149       38.579207       49.018579    16     0     0     0     6   3.930 0.523E-43 0.105E-42 0.925E-09
       109.835334       15.159236     1954.256210     1     0     0     0     7   1.560 0.523E+02 0.105E+03 0.000E+00
        99.749110      169.042280      201.817924    13     0     0     0     7   3.660 0.523E-34 0.105E-33 0.422E-08
       196.406185       81.005835      556.198413    15     0     0     0     3   3.840 0.523E-40 0.105E-39 0.146E-08
        82.658531      117.489808      437.260206    13     0     0     0     3   3.660 0.523E-34 0.105E-33 0.422E-08
       187.804135       88.098847      320.517775    12     0     0     0     8   3.570 0.523E-31 0.105E-30 0.790E-08
        29.144327       51.612086      654.601244    14     0     0     0     8   3.760 0.523E-37 0.105E-36 0.242E-08
         8.988632      108.286100      307.568735    10     0     0     0     7   3.360 0.523E-25 0.105E-24 0.350E-07
        65.273638       47.718646       48.153904    12     0     0     0     7   3.570 0.523E-31 0.105E-30 0.790E-08
        51.757854      138.085812     1342.905595     1     0     0     0     1   1.560 0.523E+02 0.105E+03 0.000E+00
       173.919202      110.405202      116.268054    12     0     0     0     6   3.570 0.523E-31 0.105E-30 0.790E-08
       142.025835       25.090515      831.189079    14     0     0     0     6   3.760 0.523E-37 0.105E-36 0.242E-08
        67.039214       19.488600      235.468423    16     0     0     0     1   3.930 0.523E-43 0.105E-42 0.925E-09
        53.163309      111.314124       89.989475     9     0     0     0     2   3.240 0.523E-22 0.105E-21 0.881E-07
         4.254788      135.226066      559.526675    19     0     0     0     2   4.160 0.523E-52 0.105E-51 0.287E-09
       168.949303      179.557096      459.462520    12     0     0     0     1   3.570 0.523E-31 0.105E-30 0.790E-08
       130.392294      168.882581     1616.826004     1     0     0     0     8   1.560 0.523E+02 0.105E+03 0.000E+00
        39.214112       34.420921      130.047918    18     0     0     0     1   4.080 0.523E-49 0.105E-48 0.411E-09
        94.866926        2.365819       19.328712     4     0     0     0     4   2.470 0.523E-07 0.105E-06 0.635E-02
        70.462996        1.567794      126.675654    12     0     0     0     3   3.570 0.523E-31 0.105E-30 0.790E-08
       198.209488        6.560055      681.309283    23     0     0     0     5   4.430 0.523E-64 0.105E-63 0.853E-10
       144.497725       61.239522      321.732739    16     1     0     0     5   3.927 0.000E+00 0.000E+00 0.290E+02
       112.332052      124.486857      289.435989    12     0     0     0     5   3.570 0.523E-31 0.105E-30 0.790E-08
        30.039533      123.008018     1330.338305     1     0     0     0     3   1.560 0.523E+02 0.105E+03 0.000E+00
       156.833165       82.166430      500.425169    12     0     0     0     8   3.570 0.523E-31 0.105E-30 0.790E-08
        69.193054       11.089508      204.626131    19     0     0     0     3   4.160 0.523E-52 0.105E-51 0.287E-09
        22.258180       97.809548      340.450692    13     1     0     0     2   3.664 0.000E+00 0.000E+00 0.277E+01
       101.630774      133.600193      274.102567    11     0     0     0     1   3.470 0.523E-28 0.105E-27 0.159E-07
       143.501412      187.173431     1335.085168     1     0     0     0     3   1.560 0.523E+02 0.105E+03 0.000E+00
        33.055306      167.467921      316.464628    11     0     0     0     7   3.470 0.523E-28 0.105E-27 0.159E-07
        98.397389      180.574908      491.148852    18     0     0     0     1   4.080 0.523E-49 0.105E-48 0.411E-09
        39.807883      131.272971       69.574621     8     0     0     0     5   3.120 0.523E-19 0.105E-18 0.783E-04
       177.984190       42.380348      937.092302     1     0     0     0     1   1.560 0.523E+02 0.105E+03 0.000E+00
         5.341096       74.829146     1909.796486     1     0     0     0     8   1.560 0.523E+02 0.105E+03 0.000E+00
        78.948477      186.130533      270.538431     9     0     0     0     5   3.240 0.523E-22 0.105E-21 0.881E-07
       188.162694      131.176633      288.254493    13     0     0     0     2   3.660 0.523E-34 0.105E-33 0.422E-08
       105.636755       96.246122       77.162972    12     0     0     0     8   3.570 0.523E-31 0.105E-30 0.790E-08
       172.303838      117.543909      242.596405     8     0     0     0     2   3.120 0.523E-19 0.105E-18 0.783E-04
       133.523235      128.058272      873.589551    16     0     0     0     8   3.930 0.523E-43 0.105E-42 0.925E-09
        80.195313       28.451130      592.027274    19     0     0     0     3   4.160 0.523E-52 0.105E-51 0.287E-09
       185.771245       24.821551     2145.366488     1     0     0     0     8   1.560 0.523E+02 0.105E+03 0.000E+00
       114.761103      101.063241       80.083514     9     0     0     0     5   3.240 0.523E-22 0.105E-21 0.881E-07
        33.119751      187.349831      929.374994    23     0     0     0     2   4.430 0.523E-64 0.105E-63 0.853E-10
        69.066513      126.054368     2009.956556     1     0     0     0     3   1.560 0.523E+02 0.105E+03 0.000E+00
        91.102516       27.250869      230.658806     9     0     0     0     4   3.240 0.523E-22 0.105E-21 0.881E-07
        74.125379      186.008205      224.895500    15     0     0     0     5   3.840 0.523E-40 0.105E-39 0.146E-08
       187.099156       25.839670      594.451228    18     0     0     0     4   4.080 0.523E-49 0.105E-48 0.411E-09
        94.867854       38.770102       46.299938    14     0     0     0     8   3.760 0.523E-37 0.105E-36 0.242E-08
       167.100723      177.618532      408.587793    12     0     0     0     3   3.570 0.523E-31 0.105E-30 0.790E-08
       183.365511       87.875195       66.529253     9     0     0     0     3   3.240 0.523E-22 0.105E-21 0.881E-07
        87.167441      168.430487       78.865369     8     0     0     0     8   3.120 0.523E-19 0.105E-18 0.783E-04
       185.248997       49.818083      739.747065    20     0     0     0     5   4.230 0.523E-55 0.105E-54 0.206E-09
       172.381886      156.489350     2010.698341     1     0     0     0     7   1.560 0.523E+02 0.105E+03 0.000E+00
        16.698661      154.469899      359.965798    10     0     0     0     5   3.360 0.523E-25 0.105E-24 0.350E-07
        58.105996       98.380489      274.114953    20     0     0     0     2   4.230 0.523E-55 0.105E-54 0.206E-09
       161.856563      155.676731      536.776224    23     0     0     0     3   4.430 0.523E-64 0.105E-63 0.853E-10
       197.473397      165.572987      220.150275    13     0     0     0     6   3.660 0.523E-34 0.105E-33 0.422E-08
        25.765990      177.526789      582.804381    14     1     0     0     3   3.756 0.000E+00 0.000E+00 0.291E+02
        79.412876       97.943146     1016.987715     1     0     0     0     2   1.560 0.523E+02 0.105E+03 0.000E+00
        81.948468       71.784479      726.114061    13     0     0     0     8   3.660 0.523E-34 0.105E-33 0.422E-08
        29.807065        8.755704     1501.998685     1     0     0     0     8   1.560 0.523E+02 0.105E+03 0.000E+00
        56.656369      154.011464      815.380394    13     1     0     0     3   3.664 0.000E+00 0.000E+00 0.277E+01
       107.280029       69.512174      796.301420    21     0     0     0     3   4.300 0.523E-58 0.105E-57 0.150E-09
       144.296693       31.273238     1309.061567     1     0     0     0     1   1.560 0.523E+02 0.105E+03 0.000E+00
       118.313144      104.423288      852.467424    32     0     0     0     5   4.950 0.523E-91 0.105E-90 0.129E-10
       154.326464       58.454915      530.595148    13     1     0     0     6   3.664 0.000E+00 0.000E+00 0.277E+01
       103.320290       45.503738      122.270463     8     0     0     0     8   3.120 0.523E-19 0.105E-18 0.783E-04
       140.199234        4.084596      237.410045    11     0     0     0     7   3.470 0.523E-28 0.105E-27 0.159E-07
       125.515870       24.747217     1638.657108     1     0     0     0     7   1.560 0.523E+02 0.105E+03 0.000E+00