ITEM: TIMESTEP
0
ITEM: NUMBER OF ATOMS
         516
ITEM: BOX BOUNDS pp pp pp
  0.0000000E+00   200.000000000000     
  0.0000000E+00   200.000000000000     
  0.0000000E+00   5000.00000000000     
ITEM: ATOMS x y z f1 f2 f3 f4 orient radius rate_mig rate_rot rate_emit
        42.085409       15.425974      513.798196    13     0     0     0     6   3.660 0.954E-34 0.191E-33 0.143E-07
       156.833165       82.166430      500.425169    12     0     0     0     2   3.570 0.954E-31 0.191E-30 0.264E-07
        72.381742       27.268041     1255.633277     1     0     0     0     8   1.560 0.954E+02 0.191E+03 0.000E+00
       156.352666      159.068859     1452.057461     1     0     0     0     8   1.560 0.954E+02 0.191E+03 0.000E+00
        87.302005      152.429467       92.463803    11     0     0     0     2   3.470 0.954E-28 0.191E-27 0.523E-07
        57.483120       95.859722       70.969911    10     0     0     0     8   3.360 0.954E-25 0.191E-24 0.113E-06
        24.010178       12.065779       94.375933    16     0     0     0     7   3.930 0.954E-43 0.191E-42 0.327E-08
        33.949085      189.655045      289.120468     6     0     0     0     1   2.830 0.954E-13 0.191E-12 0.150E-03
        79.880707      149.743571      424.642667    12     0     0     0     7   3.570 0.954E-31 0.191E-30 0.264E-07
        42.765169       19.347492     1093.951191     1     0     0     0     5   1.560 0.954E+02 0.191E+03 0.000E+00
        70.462996        1.567794      126.675654    12     0     0     0     5   3.570 0.954E-31 0.191E-30 0.264E-07
       178.167335      159.217288       40.589806     7     0     0     0     6   2.980 0.954E-16 0.191E-15 0.296E-02
       129.655182       26.490380      103.759805    10     0     0     0     3   3.360 0.954E-25 0.191E-24 0.113E-06
       138.248213       95.792369      529.222476    14     0     0     0     2   3.760 0.954E-37 0.191E-36 0.836E-08
       154.982131      189.888104       89.663860     8     0     0     0     8   3.120 0.954E-19 0.191E-18 0.208E-03
        45.219733       54.134867     2000.952777     1     0     0     0     8   1.560 0.954E+02 0.191E+03 0.000E+00
       120.053956       52.522876      703.534843    22     0     0     0     2   4.370 0.954E-61 0.191E-60 0.420E-09
        79.016203        3.171207      685.268528    21     0     0     0     7   4.300 0.954E-58 0.191E-57 0.557E-09
        94.656289      139.871803      191.245201    24     0     0     0     3   4.500 0.954E-67 0.191E-66 0.250E-09
        54.569823       83.866585     1177.694004     1     0     0     0     8   1.560 0.954E+02 0.191E+03 0.000E+00
        82.658531      117.489808      437.260206    13     0     0     0     2   3.660 0.954E-34 0.191E-33 0.143E-07
        71.636003       65.352601      431.119106    18     0     0     0     1   4.080 0.954E-49 0.191E-48 0.149E-08
        62.596376      142.325975      174.362461    17     0     0     0     8   4.010 0.954E-46 0.191E-45 0.217E-08
        53.686581       88.143623      695.932070    19     0     0     0     1   4.160 0.954E-52 0.191E-51 0.105E-08
       182.973458       80.026475      160.941458    13     0     0     0     1   3.660 0.954E-34 0.191E-33 0.143E-07
        33.687048      186.795359     1476.793814     1     0     0     0     8   1.560 0.954E+02 0.191E+03 0.000E+00
        69.869029       77.401088     1407.797313     1     0     0     0     2   1.560 0.954E+02 0.191E+03 0.000E+00
       107.792539       50.178326      514.988442     9     0     0     0     1   3.240 0.954E-22 0.191E-21 0.277E-06
       121.505775       77.229141      395.522477    14     0     0     0     2   3.760 0.954E-37 0.191E-36 0.836E-08
       133.901392      104.550800      300.260916     9     0     0     0     6   3.240 0.954E-22 0.191E-21 0.277E-06
        84.381127      193.194324      395.657210    13     0     0     0     4   3.660 0.954E-34 0.191E-33 0.143E-07
       156.542273      150.372366      189.882206     9     0     0     0     5   3.240 0.954E-22 0.191E-21 0.277E-06
        84.249420       51.644100      299.627423     8     0     0     0     6   3.120 0.954E-19 0.191E-18 0.208E-03
       105.636755       96.246122       77.162972    12     0     0     0     1   3.570 0.954E-31 0.191E-30 0.264E-07
       188.411525      156.340877      960.595790    23     0     0     0     2   4.430 0.954E-64 0.191E-63 0.321E-09
       163.811121       40.794576      360.037234    10     0     0     0     8   3.360 0.954E-25 0.191E-24 0.113E-06
       147.168263      181.149738      270.992300    10     0     0     0     6   3.360 0.954E-25 0.191E-24 0.113E-06
       133.523235      128.058272      873.589551    16     0     0     0     5   3.930 0.954E-43 0.191E-42 0.327E-08
       131.526284      116.134378      460.222683    12     0     0     0     3   3.570 0.954E-31 0.191E-30 0.264E-07
       113.105485       99.418507     1940.124343     1     0     0     0     1   1.560 0.954E+02 0.191E+03 0.000E+00
        27.083587       16.609617      372.239203     9     0     0     0     4   3.240 0.954E-22 0.191E-21 0.277E-06
       159.053500       69.830128       31.437147     9     0     0     0     3   3.240 0.954E-22 0.191E-21 0.277E-06
       116.469202       70.550058      668.714295    10     0     0     0     5   3.360 0.954E-25 0.191E-24 0.113E-06
       180.066198       71.559589      147.437813     7     0     0     0     4   2.980 0.954E-16 0.191E-15 0.296E-02
       118.313144      104.423288      852.467424    32     0     0     0     2   4.950 0.954E-91 0.191E-90 0.509E-10
       129.380667       80.687873     1152.173277     1     0     0     0     6   1.560 0.954E+02 0.191E+03 0.000E+00
       163.899657       47.470992      252.619155     8     0     0     0     2   3.120 0.954E-19 0.191E-18 0.208E-03
       161.551090       82.695693     1271.689728     1     0     0     0     6   1.560 0.954E+02 0.191E+03 0.000E+00
         4.328621       36.931814     1325.506969     1     0     0     0     1   1.560 0.954E+02 0.191E+03 0.000E+00
        40.104129      152.146018      746.090082    21     0     0     0     2   4.300 0.954E-58 0.191E-57 0.557E-09
        91.102516       27.250869      230.658806     9     0     0     0     6   3.240 0.954E-22 0.191E-21 0.277E-06
       153.993862      105.987717      465.100181    17     0     0     0     1   4.010 0.954E-46 0.191E-45 0.217E-08
       178.981017      162.215417      439.465079     6     0     0     0     1   2.830 0.954E-13 0.191E-12 0.150E-03
        72.878291        7.945426      166.329290    11     0     0     0     2   3.470 0.954E-28 0.191E-27 0.523E-07
       190.684614      172.435448      609.646305    15     0     0     0     1   3.840 0.954E-40 0.191E-39 0.510E-08
        97.466524      180.762578     1993.448900     1     0     0     0     8   1.560 0.954E+02 0.191E+03 0.000E+00
       189.625262       48.658551       51.156701    14     0     0     0     8   3.760 0.954E-37 0.191E-36 0.836E-08
        47.815967       75.836501      316.915706     9     0     0     0     5   3.240 0.954E-22 0.191E-21 0.277E-06
       120.987692       93.228463      419.160634    12     0     0     0     7   3.570 0.954E-31 0.191E-30 0.264E-07
        69.915281       31.162092      407.321537    11     0     0     0     2   3.470 0.954E-28 0.191E-27 0.523E-07
       198.706249       28.854689      618.456514    26     0     0     0     5   4.620 0.954E-73 0.191E-72 0.158E-09
       124.121270       61.993981      212.204042    14     0     0     0     3   3.760 0.954E-37 0.191E-36 0.836E-08
        11.897631       96.102907      270.102150    14     0     0     0     7   3.760 0.954E-37 0.191E-36 0.836E-08
        21.264017       93.324229     2124.369073     1     0     0     0     8   1.560 0.954E+02 0.191E+03 0.000E+00
        96.045158       94.029390     1531.238754     1     0     0     0     7   1.560 0.954E+02 0.191E+03 0.000E+00
       167.800373      167.717694       27.241053    11     0     0     0     4   3.470 0.954E-28 0.191E-27 0.523E-07
        18.738212       11.137224     1046.604819     1     0     0     0     4   1.560 0.954E+02 0.191E+03 0.000E+00
       180.983979      104.012396     1650.510320     1     0     0     0     1   1.560 0.954E+02 0.191E+03 0.000E+00
       132.133583       35.970244      458.465231    13     0     0     0     1   3.660 0.954E-34 0.191E-33 0.143E-07
       195.175145       78.858377       17.046681     9     0     0     0     3   3.240 0.954E-22 0.191E-21 0.277E-06
       164.969134       57.629101       91.534164    11     0     0     0     7   3.470 0.954E-28 0.191E-27 0.523E-07
       198.106587       70.466084     1345.334949     1     0     0     0     4   1.560 0.954E+02 0.191E+03 0.000E+00
       146.706692      119.683645       51.726415     7     0     0     0     2   2.980 0.954E-16 0.191E-15 0.296E-02
       171.778902       42.118426      844.098461    12     0     0     0     1   3.570 0.954E-31 0.191E-30 0.264E-07
       140.199234        4.084596      237.410045    11     0     0     0     6   3.470 0.954E-28 0.191E-27 0.523E-07
        14.620965       42.030617       75.171912    17     0     0     0     4   4.010 0.954E-46 0.191E-45 0.217E-08
       119.343147       98.027318       54.225113     9     0     0     0     5   3.240 0.954E-22 0.191E-21 0.277E-06
        39.081725       43.859496     1581.864768     1     0     0     0     5   1.560 0.954E+02 0.191E+03 0.000E+00
       168.390070      155.879923     1514.030716     1     0     0     0     4   1.560 0.954E+02 0.191E+03 0.000E+00
       182.536515      123.660241      154.057776    12     0     0     0     5   3.570 0.954E-31 0.191E-30 0.264E-07
        85.330429       52.827798      649.399830    23     0     0     0     3   4.430 0.954E-64 0.191E-63 0.321E-09
       116.105942        4.551717      458.572817     9     0     0     0     5   3.240 0.954E-22 0.191E-21 0.277E-06
         9.034998       29.961261      372.519227    12     0     0     0     2   3.570 0.954E-31 0.191E-30 0.264E-07
        37.796010      164.756819      163.573743    11     0     0     0     8   3.470 0.954E-28 0.191E-27 0.523E-07
        40.970176      179.772059     1529.051123     1     0     0     0     3   1.560 0.954E+02 0.191E+03 0.000E+00
       118.756428       77.532862      163.896739    17     0     0     0     6   4.010 0.954E-46 0.191E-45 0.217E-08
        56.656369      154.011464      815.380394    13     0     0     0     7   3.660 0.954E-34 0.191E-33 0.143E-07
        95.486151       81.762349      370.799259    16     0     0     0     1   3.930 0.954E-43 0.191E-42 0.327E-08
        63.585400      127.145171      101.709727    11     0     0     0     2   3.470 0.954E-28 0.191E-27 0.523E-07
       154.326464       58.454915      530.595148    13     0     0     0     5   3.660 0.954E-34 0.191E-33 0.143E-07
        86.285633      164.519133      163.374767    14     0     0     0     3   3.760 0.954E-37 0.191E-36 0.836E-08
       140.277058      119.318535      725.001754    24     0     0     0     8   4.500 0.954E-67 0.191E-66 0.250E-09
        43.347867      174.956552      484.157785    23     0     0     0     7   4.430 0.954E-64 0.191E-63 0.321E-09
         6.180104       74.698590     1145.828647     1     0     0     0     2   1.560 0.954E+02 0.191E+03 0.000E+00
        63.514784        9.564383      426.956287     9     0     0     0     3   3.240 0.954E-22 0.191E-21 0.277E-06
       187.804135       88.098847      320.517775    12     0     0     0     7   3.570 0.954E-31 0.191E-30 0.264E-07
       137.012184       26.347013     1001.651052     1     0     0     0     3   1.560 0.954E+02 0.191E+03 0.000E+00
        91.120759      188.694673     1395.613120     1     0     0     0     4   1.560 0.954E+02 0.191E+03 0.000E+00
       126.184636      150.157054     1211.972458     1     0     0     0     8   1.560 0.954E+02 0.191E+03 0.000E+00
        76.507429      126.945405      222.564160    15     0     0     0     4   3.840 0.954E-40 0.191E-39 0.510E-08
       163.759382      194.260116      700.347634    26     0     0     0     6   4.620 0.954E-73 0.191E-72 0.158E-09
        91.555690      168.567916       66.232380    16     0     0     0     7   3.930 0.954E-43 0.191E-42 0.327E-08
        91.242323      103.185768      131.290292    10     0     0     0     6   3.360 0.954E-25 0.191E-24 0.113E-06
        60.288187      192.398045      293.248906     7     0     0     0     5   2.980 0.954E-16 0.191E-15 0.296E-02
        29.144327       51.612086      654.601244    14     0     0     0     8   3.760 0.954E-37 0.191E-36 0.836E-08
        36.360304       69.880422      158.509075    10     0     0     0     1   3.360 0.954E-25 0.191E-24 0.113E-06
       156.290046       89.501436       64.003936    10     0     0     0     8   3.360 0.954E-25 0.191E-24 0.113E-06
        14.297527      191.558534      818.868754    16     0     0     0     5   3.930 0.954E-43 0.191E-42 0.327E-08
        86.620927      153.975224      121.417730    11     0     0     0     6   3.470 0.954E-28 0.191E-27 0.523E-07
       181.520875       29.850086      287.197145    14     0     0     0     1   3.760 0.954E-37 0.191E-36 0.836E-08
       132.145149       38.579207       49.018579    16     0     0     0     5   3.930 0.954E-43 0.191E-42 0.327E-08
       146.496027       50.757826       95.220335     8     0     0     0     5   3.120 0.954E-19 0.191E-18 0.208E-03
        34.111656       10.332206      675.804045     1     0     0     0     8   1.560 0.954E+02 0.191E+03 0.000E+00
       153.394634      110.882309      235.431680     9     0     0     0     5   3.240 0.954E-22 0.191E-21 0.277E-06
        29.175227      140.408238     1982.180637     1     0     0     0     5   1.560 0.954E+02 0.191E+03 0.000E+00
        13.614373      134.458888     1297.589346     1     0     0     0     8   1.560 0.954E+02 0.191E+03 0.000E+00
        95.047772       45.932260     1725.655026     1     0     0     0     7   1.560 0.954E+02 0.191E+03 0.000E+00
       163.677882        1.316962      411.970771     8     0     0     0     8   3.120 0.954E-19 0.191E-18 0.208E-03
       188.162694      131.176633      288.254493    13     0     0     0     4   3.660 0.954E-34 0.191E-33 0.143E-07
        94.009585       62.040908     1868.797170     1     0     0     0     2   1.560 0.954E+02 0.191E+03 0.000E+00
        24.031469       58.631028      387.606556     9     0     0     0     1   3.240 0.954E-22 0.191E-21 0.277E-06
        81.908725      121.951913     1259.504670     1     0     0     0     7   1.560 0.954E+02 0.191E+03 0.000E+00
       104.256922      191.293224      419.995838    18     0     0     0     4   4.080 0.954E-49 0.191E-48 0.149E-08
       154.114390      184.525554       75.340852    13     0     0     0     1   3.660 0.954E-34 0.191E-33 0.143E-07
       134.691756       73.108936      514.584422    20     0     0     0     6   4.230 0.954E-55 0.191E-54 0.758E-09
       161.856563      155.676731      536.776224    23     0     0     0     1   4.430 0.954E-64 0.191E-63 0.321E-09
        51.053699       95.080533      590.963479    27     0     0     0     4   4.680 0.954E-76 0.191E-75 0.128E-09
       105.943095      168.839307     1956.507498     1     0     0     0     4   1.560 0.954E+02 0.191E+03 0.000E+00
         4.254788      135.226066      559.526675    19     0     0     0     8   4.160 0.954E-52 0.191E-51 0.105E-08
       198.013995      115.722236      265.876575    14     0     0     0     6   3.760 0.954E-37 0.191E-36 0.836E-08
        64.259468       79.535341     1358.953174     1     0     0     0     3   1.560 0.954E+02 0.191E+03 0.000E+00
        11.243251        4.970885     1239.520348     1     0     0     0     6   1.560 0.954E+02 0.191E+03 0.000E+00
       194.869118       39.485084      213.927308     9     0     0     0     1   3.240 0.954E-22 0.191E-21 0.277E-06
        66.694939       91.046582      185.777667    10     0     0     0     7   3.360 0.954E-25 0.191E-24 0.113E-06
       185.563655       21.484365     1605.966738     1     0     0     0     6   1.560 0.954E+02 0.191E+03 0.000E+00
        18.077024       95.755857      327.978975    17     0     0     0     6   4.010 0.954E-46 0.191E-45 0.217E-08
        23.171388      155.084804       97.864350    17     0     0     0     6   4.010 0.954E-46 0.191E-45 0.217E-08
        20.166810      162.986807      558.626618    11     0     0     0     6   3.470 0.954E-28 0.191E-27 0.523E-07
        10.229538      109.794347      161.628399    12     0     0     0     3   3.570 0.954E-31 0.191E-30 0.264E-07
        85.048966       55.698511      337.603253    10     0     0     0     2   3.360 0.954E-25 0.191E-24 0.113E-06
       198.175322      128.462898       39.728176     8     0     0     0     4   3.120 0.954E-19 0.191E-18 0.208E-03
         5.545140       14.653202       22.317900    10     0     0     0     5   3.360 0.954E-25 0.191E-24 0.113E-06
        29.094753      135.561647      133.338506     7     0     0     0     8   2.980 0.954E-16 0.191E-15 0.296E-02
       151.769189       98.570926     1732.520817     1     0     0     0     2   1.560 0.954E+02 0.191E+03 0.000E+00
        37.395648       99.975636      587.599734    12     0     0     0     6   3.570 0.954E-31 0.191E-30 0.264E-07
       192.681945       49.246727       64.439787    14     0     0     0     4   3.760 0.954E-37 0.191E-36 0.836E-08
        29.151267        2.864266      960.244923    26     0     0     0     1   4.620 0.954E-73 0.191E-72 0.158E-09
       161.858857      157.536919      646.483439    26     0     0     0     1   4.620 0.954E-73 0.191E-72 0.158E-09
         6.634799       20.574716      319.401105    14     0     0     0     8   3.760 0.954E-37 0.191E-36 0.836E-08
        56.129533      122.381657      155.283408     9     0     0     0     3   3.240 0.954E-22 0.191E-21 0.277E-06
       178.642297      131.002360      373.665615    11     0     0     0     3   3.470 0.954E-28 0.191E-27 0.523E-07
        85.775693       80.531238      160.166091     9     0     0     0     1   3.240 0.954E-22 0.191E-21 0.277E-06
       192.782362        1.574029     1417.550409     1     0     0     0     4   1.560 0.954E+02 0.191E+03 0.000E+00
       185.248997       49.818083      739.747065    20     0     0     0     6   4.230 0.954E-55 0.191E-54 0.758E-09
       182.339901      169.537541      304.966291    15     0     0     0     3   3.840 0.954E-40 0.191E-39 0.510E-08
        58.487605      198.702774      218.865639    11     0     0     0     5   3.470 0.954E-28 0.191E-27 0.523E-07
       159.265618      129.678884     1362.550432     1     0     0     0     4   1.560 0.954E+02 0.191E+03 0.000E+00
        52.189601       96.775709      434.766350    15     0     0     0     5   3.840 0.954E-40 0.191E-39 0.510E-08
        24.528000       36.088212     1186.665869     1     0     0     0     8   1.560 0.954E+02 0.191E+03 0.000E+00
       103.320290       45.503738      122.270463     8     0     0     0     8   3.120 0.954E-19 0.191E-18 0.208E-03
       107.280029       69.512174      796.301420    21     0     0     0     8   4.300 0.954E-58 0.191E-57 0.557E-09
        59.832135      196.933926      405.922872    17     0     0     0     2   4.010 0.954E-46 0.191E-45 0.217E-08
         7.379329      175.715167      457.081692    19     0     0     0     5   4.160 0.954E-52 0.191E-51 0.105E-08
        74.654327      187.007876      576.504350    21     0     0     0     8   4.300 0.954E-58 0.191E-57 0.557E-09
         8.988632      108.286100      307.568735    10     0     0     0     3   3.360 0.954E-25 0.191E-24 0.113E-06
        44.227380       82.479225      853.551643    18     0     0     0     7   4.080 0.954E-49 0.191E-48 0.149E-08
       199.498014      176.036191      779.627938    12     0     0     0     4   3.570 0.954E-31 0.191E-30 0.264E-07
       199.292618      192.550339     1717.048573     1     0     0     0     6   1.560 0.954E+02 0.191E+03 0.000E+00
       184.491451      157.138314      320.519125    12     0     0     0     2   3.570 0.954E-31 0.191E-30 0.264E-07
       163.950828      146.370067      973.779996    46     0     0     0     6   5.580 0.954-133 0.191-132 0.858E-11
        44.510499       36.679824      216.992032     9     0     0     0     5   3.240 0.954E-22 0.191E-21 0.277E-06
        19.990039      174.839834     1417.473037     1     0     0     0     3   1.560 0.954E+02 0.191E+03 0.000E+00
       104.269233       98.759355     1473.985568     1     0     0     0     6   1.560 0.954E+02 0.191E+03 0.000E+00
        19.254229       79.038506      189.797689    18     0     0     0     6   4.080 0.954E-49 0.191E-48 0.149E-08
        37.367311      181.060718      811.704830    20     0     0     0     2   4.230 0.954E-55 0.191E-54 0.758E-09
        58.293716      142.128057     1537.993251     1     0     0     0     1   1.560 0.954E+02 0.191E+03 0.000E+00
        46.419925       25.743459      461.306305    10     0     0     0     5   3.360 0.954E-25 0.191E-24 0.113E-06
       194.942997       13.842474        8.725081     5     0     0     0     8   2.660 0.954E-10 0.191E-09 0.538E-02
        84.213792      164.529367      768.448971    24     0     0     0     1   4.500 0.954E-67 0.191E-66 0.250E-09
       136.157686      115.145489      382.870616     6     0     0     0     5   2.830 0.954E-13 0.191E-12 0.150E-03
       157.066830       30.971370      286.115563    11     0     0     0     6   3.470 0.954E-28 0.191E-27 0.523E-07
       121.818578       42.282754      474.555443    11     0     0     0     5   3.470 0.954E-28 0.191E-27 0.523E-07
       163.979689      116.460209       47.705366    11     0     0     0     8   3.470 0.954E-28 0.191E-27 0.523E-07
        20.587891      183.079034     2164.357386     1     0     0     0     4   1.560 0.954E+02 0.191E+03 0.000E+00
        99.749110      169.042280      201.817924    13     0     0     0     2   3.660 0.954E-34 0.191E-33 0.143E-07
        81.740453       40.801116      619.303770    11     0     0     0     3   3.470 0.954E-28 0.191E-27 0.523E-07
       165.927880       83.647822      344.094978    16     0     0     0     8   3.930 0.954E-43 0.191E-42 0.327E-08
       117.314156       26.131784      435.918395    14     0     0     0     2   3.760 0.954E-37 0.191E-36 0.836E-08
        87.289589       64.997570      464.838703    14     0     0     0     2   3.760 0.954E-37 0.191E-36 0.836E-08
        84.970341       81.855445      289.343433    14     0     0     0     5   3.760 0.954E-37 0.191E-36 0.836E-08
        65.273638       47.718646       48.153904    12     0     0     0     7   3.570 0.954E-31 0.191E-30 0.264E-07
        97.917047        0.580690     1218.083999     1     0     0     0     6   1.560 0.954E+02 0.191E+03 0.000E+00
        47.354822       84.449048      158.471204     9     0     0     0     2   3.240 0.954E-22 0.191E-21 0.277E-06
       124.106070      177.467263      339.654389     7     0     0     0     4   2.980 0.954E-16 0.191E-15 0.296E-02
       195.248581      179.468940     1190.695133     1     0     0     0     4   1.560 0.954E+02 0.191E+03 0.000E+00
        15.647586      133.934744      233.294877    17     0     0     0     1   4.010 0.954E-46 0.191E-45 0.217E-08
        22.793609       88.201477     1582.639909     1     0     0     0     8   1.560 0.954E+02 0.191E+03 0.000E+00
       199.163015      173.442876      465.234410    12     0     0     0     8   3.570 0.954E-31 0.191E-30 0.264E-07
       125.961952      192.914525     1988.388475     1     0     0     0     6   1.560 0.954E+02 0.191E+03 0.000E+00
       173.919202      110.405202      116.268054    12     0     0     0     8   3.570 0.954E-31 0.191E-30 0.264E-07
       117.279897       51.056773     1528.943950     1     0     0     0     8   1.560 0.954E+02 0.191E+03 0.000E+00
        74.953408       16.705855      123.657347     8     0     0     0     4   3.120 0.954E-19 0.191E-18 0.208E-03
        99.879317       42.650675      552.217052    18     0     0     0     2   4.080 0.954E-49 0.191E-48 0.149E-08
        63.968995       80.246788     1257.369876     1     0     0     0     6   1.560 0.954E+02 0.191E+03 0.000E+00
        48.535916      136.371285      504.700148    19     0     0     0     1   4.160 0.954E-52 0.191E-51 0.105E-08
       105.433861      124.572971     1221.100965     1     0     0     0     5   1.560 0.954E+02 0.191E+03 0.000E+00
        90.777168       75.842761      535.626477    15     0     0     0     8   3.840 0.954E-40 0.191E-39 0.510E-08
       125.251883       48.286411      660.119129    27     0     0     0     3   4.680 0.954E-76 0.191E-75 0.128E-09
       191.103471      189.720491      442.072533    13     0     0     0     7   3.660 0.954E-34 0.191E-33 0.143E-07
        32.823934       23.032189      293.747106     7     0     0     0     4   2.980 0.954E-16 0.191E-15 0.296E-02
       116.093904       28.390559       28.726266     9     0     0     0     6   3.240 0.954E-22 0.191E-21 0.277E-06
       193.729080       76.270517      375.330694     8     0     0     0     1   3.120 0.954E-19 0.191E-18 0.208E-03
       120.531350       69.535966      495.664905     9     0     0     0     7   3.240 0.954E-22 0.191E-21 0.277E-06
       185.519586       83.619158       99.297485    12     0     0     0     4   3.570 0.954E-31 0.191E-30 0.264E-07
        50.462968      182.691284      871.456278    34     0     0     0     8   5.050 0.954E-97 0.191E-96 0.372E-10
        98.364854        4.200880     2149.643380     1     0     0     0     1   1.560 0.954E+02 0.191E+03 0.000E+00
       118.971310       49.108488      360.588579    12     0     0     0     3   3.570 0.954E-31 0.191E-30 0.264E-07
        85.279327      110.862333      536.933150    13     0     0     0     7   3.660 0.954E-34 0.191E-33 0.143E-07
        17.214158      161.105156      239.248219    10     0     0     0     7   3.360 0.954E-25 0.191E-24 0.113E-06
       144.497725       61.239522      321.732739    16     0     0     0     3   3.930 0.954E-43 0.191E-42 0.327E-08
         3.383076        8.990276       94.711516    24     0     0     0     4   4.500 0.954E-67 0.191E-66 0.250E-09
       159.305249      195.484804     1816.616040     1     0     0     0     8   1.560 0.954E+02 0.191E+03 0.000E+00
        33.110169        2.726825     1757.279043     1     0     0     0     6   1.560 0.954E+02 0.191E+03 0.000E+00
       106.579410      102.054590       59.121998     6     0     0     0     6   2.830 0.954E-13 0.191E-12 0.150E-03
       129.068781       45.942443      366.161557     8     0     0     0     4   3.120 0.954E-19 0.191E-18 0.208E-03
         4.096182       48.206517     2426.805567     1     0     0     0     2   1.560 0.954E+02 0.191E+03 0.000E+00
       101.224175      186.258487      221.090993    14     0     0     0     6   3.760 0.954E-37 0.191E-36 0.836E-08
       115.982246      192.469510      202.267744    16     0     0     0     1   3.930 0.954E-43 0.191E-42 0.327E-08
       155.472320      182.582328      629.701769    20     0     0     0     1   4.230 0.954E-55 0.191E-54 0.758E-09
        94.867854       38.770102       46.299938    14     0     0     0     8   3.760 0.954E-37 0.191E-36 0.836E-08
        80.422664      138.339351      756.990888    16     0     0     0     6   3.930 0.954E-43 0.191E-42 0.327E-08
        39.214112       34.420921      130.047918    18     0     0     0     8   4.080 0.954E-49 0.191E-48 0.149E-08
        99.904478       14.845673      103.563467    10     0     0     0     8   3.360 0.954E-25 0.191E-24 0.113E-06
        22.258180       97.809548      340.450692    13     0     0     0     4   3.660 0.954E-34 0.191E-33 0.143E-07
        65.172964       26.030759     2156.130683     1     0     0     0     6   1.560 0.954E+02 0.191E+03 0.000E+00
        32.192202      118.320390      682.922112    13     0     0     0     7   3.660 0.954E-34 0.191E-33 0.143E-07
       144.341793      127.742978      244.927566     9     0     0     0     5   3.240 0.954E-22 0.191E-21 0.277E-06
        93.070350       90.751212      911.882230    45     0     0     0     7   5.540 0.954-130 0.191-129 0.948E-11
       126.635138       70.994907       58.804537    13     0     0     0     6   3.660 0.954E-34 0.191E-33 0.143E-07
       196.406185       81.005835      556.198413    15     0     0     0     3   3.840 0.954E-40 0.191E-39 0.510E-08
       196.465897      192.185941     1193.524649     1     0     0     0     4   1.560 0.954E+02 0.191E+03 0.000E+00
        71.009247       73.931860     1797.072237     1     0     0     0     6   1.560 0.954E+02 0.191E+03 0.000E+00
       165.653909      189.379323     1163.274091     1     0     0     0     5   1.560 0.954E+02 0.191E+03 0.000E+00
       168.950532       25.846781      425.365814    12     0     0     0     3   3.570 0.954E-31 0.191E-30 0.264E-07
       137.423390      191.576346     1037.475015    42     0     0     0     2   5.420 0.954-121 0.191-120 0.131E-10
       166.859669       19.667003     1247.369314     1     0     0     0     5   1.560 0.954E+02 0.191E+03 0.000E+00
       167.100723      177.618532      408.587793    12     0     0     0     8   3.570 0.954E-31 0.191E-30 0.264E-07
        72.660095      132.359960      253.137131     7     0     0     0     4   2.980 0.954E-16 0.191E-15 0.296E-02
        20.533618       83.983208       73.034931    10     0     0     0     1   3.360 0.954E-25 0.191E-24 0.113E-06
       149.523570       24.503941      234.071743    10     0     0     0     1   3.360 0.954E-25 0.191E-24 0.113E-06
        66.353050       60.576560     1491.893141     1     0     0     0     6   1.560 0.954E+02 0.191E+03 0.000E+00