ITEM: TIMESTEP
0
ITEM: NUMBER OF ATOMS
         514
ITEM: BOX BOUNDS pp pp pp
  0.0000000E+00   200.000000000000     
  0.0000000E+00   200.000000000000     
  0.0000000E+00   5000.00000000000     
ITEM: ATOMS x y z f1 f2 f3 f4 orient radius rate_mig rate_rot rate_emit
        42.085409       15.425974      513.798196    13     0     0     0     6   3.660 0.128E-33 0.255E-33 0.259E-07
       156.833165       82.166430      500.425169    12     0     0     0     2   3.570 0.128E-30 0.255E-30 0.473E-07
       128.367433       19.355167     1304.693096     1     0     0     0     1   1.560 0.128E+03 0.255E+03 0.000E+00
       133.437210      149.221139     1349.177856     1     0     0     0     5   1.560 0.128E+03 0.255E+03 0.000E+00
        87.302005      152.429467       92.463803    11     0     0     0     2   3.470 0.128E-27 0.255E-27 0.927E-07
        57.483120       95.859722       70.969911    10     0     0     0     8   3.360 0.128E-24 0.255E-24 0.198E-06
        24.010178       12.065779       94.375933    16     0     0     0     7   3.930 0.128E-42 0.255E-42 0.601E-08
        33.949085      189.655045      289.120468     6     0     0     0     1   2.830 0.128E-12 0.255E-12 0.241E-03
        79.880707      149.743571      424.642667    12     0     0     0     7   3.570 0.128E-30 0.255E-30 0.473E-07
        31.687145      163.957373     1035.395923     1     0     0     0     1   1.560 0.128E+03 0.255E+03 0.000E+00
        70.462996        1.567794      126.675654    12     0     0     0     5   3.570 0.128E-30 0.255E-30 0.473E-07
       178.167335      159.217288       40.589806     7     0     0     0     6   2.980 0.128E-15 0.255E-15 0.459E-02
       129.655182       26.490380      103.759805    10     0     0     0     3   3.360 0.128E-24 0.255E-24 0.198E-06
       138.248213       95.792369      529.222476    14     0     0     0     2   3.760 0.128E-36 0.255E-36 0.152E-07
       154.982131      189.888104       89.663860     8     0     0     0     8   3.120 0.128E-18 0.255E-18 0.333E-03
       167.728178       92.771677     1976.385207     1     0     0     0     7   1.560 0.128E+03 0.255E+03 0.000E+00
       120.053956       52.522876      703.534843    22     0     0     0     2   4.370 0.128E-60 0.255E-60 0.793E-09
        79.016203        3.171207      685.268528    21     0     0     0     7   4.300 0.128E-57 0.255E-57 0.105E-08
        94.656289      139.871803      191.245201    24     0     0     0     3   4.500 0.128E-66 0.255E-66 0.475E-09
        84.638745       63.293113     1008.358498     1     0     0     0     3   1.560 0.128E+03 0.255E+03 0.000E+00
        82.658531      117.489808      437.260206    13     0     0     0     2   3.660 0.128E-33 0.255E-33 0.259E-07
        71.636003       65.352601      431.119106    18     0     0     0     1   4.080 0.128E-48 0.255E-48 0.276E-08
        33.229912      114.915526      166.901534    14     0     0     0     5   3.760 0.128E-36 0.255E-36 0.152E-07
        53.686581       88.143623      695.932070    19     0     0     0     1   4.160 0.128E-51 0.255E-51 0.195E-08
       182.973458       80.026475      160.941458    13     0     0     0     1   3.660 0.128E-33 0.255E-33 0.259E-07
       141.364120      150.080222     1127.066463     1     0     0     0     4   1.560 0.128E+03 0.255E+03 0.000E+00
       123.676573      115.382884     1534.403299     1     0     0     0     1   1.560 0.128E+03 0.255E+03 0.000E+00
       107.792539       50.178326      514.988442     9     0     0     0     1   3.240 0.128E-21 0.255E-21 0.481E-06
       121.505775       77.229141      395.522477    14     0     0     0     2   3.760 0.128E-36 0.255E-36 0.152E-07
       133.901392      104.550800      300.260916     9     0     0     0     6   3.240 0.128E-21 0.255E-21 0.481E-06
        84.381127      193.194324      395.657210    13     0     0     0     4   3.660 0.128E-33 0.255E-33 0.259E-07
       156.542273      150.372366      189.882206     9     0     0     0     5   3.240 0.128E-21 0.255E-21 0.481E-06
        84.249420       51.644100      299.627423     8     0     0     0     6   3.120 0.128E-18 0.255E-18 0.333E-03
       105.636755       96.246122       77.162972    12     0     0     0     1   3.570 0.128E-30 0.255E-30 0.473E-07
       188.411525      156.340877      960.595790    23     0     0     0     2   4.430 0.128E-63 0.255E-63 0.607E-09
       163.811121       40.794576      360.037234    10     0     0     0     8   3.360 0.128E-24 0.255E-24 0.198E-06
       147.168263      181.149738      270.992300    10     0     0     0     6   3.360 0.128E-24 0.255E-24 0.198E-06
       133.523235      128.058272      873.589551    16     0     0     0     5   3.930 0.128E-42 0.255E-42 0.601E-08
       131.526284      116.134378      460.222683    12     0     0     0     3   3.570 0.128E-30 0.255E-30 0.473E-07
       183.334350       93.088208     2057.234880     1     0     0     0     4   1.560 0.128E+03 0.255E+03 0.000E+00
        27.083587       16.609617      372.239203     9     0     0     0     4   3.240 0.128E-21 0.255E-21 0.481E-06
       159.053500       69.830128       31.437147     9     0     0     0     3   3.240 0.128E-21 0.255E-21 0.481E-06
       116.469202       70.550058      668.714295    10     0     0     0     5   3.360 0.128E-24 0.255E-24 0.198E-06
       180.066198       71.559589      147.437813     7     0     0     0     4   2.980 0.128E-15 0.255E-15 0.459E-02
       118.313144      104.423288      852.467424    32     0     0     0     2   4.950 0.128E-90 0.255E-90 0.987E-10
        43.326055      102.843921     1126.852079     1     0     0     0     4   1.560 0.128E+03 0.255E+03 0.000E+00
       163.899657       47.470992      252.619155     8     0     0     0     2   3.120 0.128E-18 0.255E-18 0.333E-03
       100.817674       79.530544     1278.020027     1     0     0     0     4   1.560 0.128E+03 0.255E+03 0.000E+00
       145.066725       23.327778     1403.794977     1     0     0     0     7   1.560 0.128E+03 0.255E+03 0.000E+00
        40.104129      152.146018      746.090082    21     0     0     0     2   4.300 0.128E-57 0.255E-57 0.105E-08
        91.102516       27.250869      230.658806     9     0     0     0     6   3.240 0.128E-21 0.255E-21 0.481E-06
       153.993862      105.987717      465.100181    17     0     0     0     1   4.010 0.128E-45 0.255E-45 0.401E-08
       178.981017      162.215417      439.465079     6     0     0     0     1   2.830 0.128E-12 0.255E-12 0.241E-03
        72.878291        7.945426      166.329290    11     0     0     0     2   3.470 0.128E-27 0.255E-27 0.927E-07
       190.684614      172.435448      609.646305    15     0     0     0     1   3.840 0.128E-39 0.255E-39 0.931E-08
       101.618676       68.399766     2052.004168     1     0     0     0     8   1.560 0.128E+03 0.255E+03 0.000E+00
       189.625262       48.658551       51.156701    14     0     0     0     8   3.760 0.128E-36 0.255E-36 0.152E-07
        47.815967       75.836501      316.915706     9     0     0     0     5   3.240 0.128E-21 0.255E-21 0.481E-06
       120.987692       93.228463      419.160634    12     0     0     0     7   3.570 0.128E-30 0.255E-30 0.473E-07
        69.915281       31.162092      407.321537    11     0     0     0     2   3.470 0.128E-27 0.255E-27 0.927E-07
       198.706249       28.854689      618.456514    26     0     0     0     5   4.620 0.128E-72 0.255E-72 0.302E-09
       124.121270       61.993981      212.204042    14     0     0     0     3   3.760 0.128E-36 0.255E-36 0.152E-07
        11.897631       96.102907      270.102150    14     0     0     0     7   3.760 0.128E-36 0.255E-36 0.152E-07
        68.024199      168.592935     1982.342385     1     0     0     0     1   1.560 0.128E+03 0.255E+03 0.000E+00
       115.816690      123.429498     1553.756787     1     0     0     0     8   1.560 0.128E+03 0.255E+03 0.000E+00
       167.800373      167.717694       27.241053    11     0     0     0     4   3.470 0.128E-27 0.255E-27 0.927E-07
       128.531447      148.821233     1083.004040     1     0     0     0     7   1.560 0.128E+03 0.255E+03 0.000E+00
        94.727601       19.221570     1532.786992     1     0     0     0     3   1.560 0.128E+03 0.255E+03 0.000E+00
       132.133583       35.970244      458.465231    13     0     0     0     1   3.660 0.128E-33 0.255E-33 0.259E-07
       195.175145       78.858377       17.046681     9     0     0     0     3   3.240 0.128E-21 0.255E-21 0.481E-06
       164.969134       57.629101       91.534164    11     0     0     0     7   3.470 0.128E-27 0.255E-27 0.927E-07
       180.928504       22.893776      498.095555    14     0     0     0     1   3.760 0.128E-36 0.255E-36 0.152E-07
       168.245356      125.321838       79.504564     9     0     0     0     5   3.240 0.128E-21 0.255E-21 0.481E-06
       171.778902       42.118426      844.098461    12     0     0     0     1   3.570 0.128E-30 0.255E-30 0.473E-07
       140.199234        4.084596      237.410045    11     0     0     0     6   3.470 0.128E-27 0.255E-27 0.927E-07
        14.620965       42.030617       75.171912    17     0     0     0     4   4.010 0.128E-45 0.255E-45 0.401E-08
       119.343147       98.027318       54.225113     9     0     0     0     5   3.240 0.128E-21 0.255E-21 0.481E-06
       112.601196       17.871017     1175.491293     1     0     0     0     3   1.560 0.128E+03 0.255E+03 0.000E+00
       195.519109      146.951882     1465.870691     1     0     0     0     1   1.560 0.128E+03 0.255E+03 0.000E+00
       182.536515      123.660241      154.057776    12     0     0     0     5   3.570 0.128E-30 0.255E-30 0.473E-07
        85.330429       52.827798      649.399830    23     0     0     0     3   4.430 0.128E-63 0.255E-63 0.607E-09
       116.105942        4.551717      458.572817     9     0     0     0     5   3.240 0.128E-21 0.255E-21 0.481E-06
         9.034998       29.961261      372.519227    12     0     0     0     2   3.570 0.128E-30 0.255E-30 0.473E-07
       196.855819      130.746666      151.344618    13     0     0     0     3   3.660 0.128E-33 0.255E-33 0.259E-07
        50.632783      126.602002     1362.883475     1     0     0     0     5   1.560 0.128E+03 0.255E+03 0.000E+00
        62.596376      142.325975      174.362461    17     0     0     0     5   4.010 0.128E-45 0.255E-45 0.401E-08
        56.656369      154.011464      815.380394    13     0     0     0     7   3.660 0.128E-33 0.255E-33 0.259E-07
        95.486151       81.762349      370.799259    16     0     0     0     1   3.930 0.128E-42 0.255E-42 0.601E-08
        63.585400      127.145171      101.709727    11     0     0     0     2   3.470 0.128E-27 0.255E-27 0.927E-07
       154.326464       58.454915      530.595148    13     0     0     0     5   3.660 0.128E-33 0.255E-33 0.259E-07
        86.285633      164.519133      163.374767    14     0     0     0     3   3.760 0.128E-36 0.255E-36 0.152E-07
       140.277058      119.318535      725.001754    24     0     0     0     8   4.500 0.128E-66 0.255E-66 0.475E-09
        43.347867      174.956552      484.157785    23     0     0     0     7   4.430 0.128E-63 0.255E-63 0.607E-09
       123.290641      135.432005     1269.269483     1     0     0     0     6   1.560 0.128E+03 0.255E+03 0.000E+00
        63.514784        9.564383      426.956287     9     0     0     0     3   3.240 0.128E-21 0.255E-21 0.481E-06
       187.804135       88.098847      320.517775    12     0     0     0     7   3.570 0.128E-30 0.255E-30 0.473E-07
       197.745600       83.319707     1115.596439     1     0     0     0     8   1.560 0.128E+03 0.255E+03 0.000E+00
       198.175322      128.462898       39.728176     8     0     0     0     1   3.120 0.128E-18 0.255E-18 0.333E-03
         7.491524       56.785139     1226.215631     1     0     0     0     7   1.560 0.128E+03 0.255E+03 0.000E+00
        76.507429      126.945405      222.564160    15     0     0     0     4   3.840 0.128E-39 0.255E-39 0.931E-08
       163.759382      194.260116      700.347634    26     0     0     0     6   4.620 0.128E-72 0.255E-72 0.302E-09
        91.555690      168.567916       66.232380    16     0     0     0     7   3.930 0.128E-42 0.255E-42 0.601E-08
        91.242323      103.185768      131.290292    10     0     0     0     6   3.360 0.128E-24 0.255E-24 0.198E-06
        60.288187      192.398045      293.248906     7     0     0     0     5   2.980 0.128E-15 0.255E-15 0.459E-02
        29.144327       51.612086      654.601244    14     0     0     0     8   3.760 0.128E-36 0.255E-36 0.152E-07
        36.360304       69.880422      158.509075    10     0     0     0     1   3.360 0.128E-24 0.255E-24 0.198E-06
       156.290046       89.501436       64.003936    10     0     0     0     8   3.360 0.128E-24 0.255E-24 0.198E-06
        14.297527      191.558534      818.868754    16     0     0     0     5   3.930 0.128E-42 0.255E-42 0.601E-08
        86.620927      153.975224      121.417730    11     0     0     0     6   3.470 0.128E-27 0.255E-27 0.927E-07
       181.520875       29.850086      287.197145    14     0     0     0     1   3.760 0.128E-36 0.255E-36 0.152E-07
       132.145149       38.579207       49.018579    16     0     0     0     5   3.930 0.128E-42 0.255E-42 0.601E-08
       146.496027       50.757826       95.220335     8     0     0     0     5   3.120 0.128E-18 0.255E-18 0.333E-03
       198.452540        6.519406      681.277720    24     0     0     0     2   4.500 0.128E-66 0.255E-66 0.475E-09
       153.394634      110.882309      235.431680     9     0     0     0     5   3.240 0.128E-21 0.255E-21 0.481E-06
        44.471643       18.988154     1111.170538     1     0     0     0     4   1.560 0.128E+03 0.255E+03 0.000E+00
        32.922671       44.120009     1487.890201     1     0     0     0     3   1.560 0.128E+03 0.255E+03 0.000E+00
       118.786395      146.230046     1926.642028     1     0     0     0     2   1.560 0.128E+03 0.255E+03 0.000E+00
       163.677882        1.316962      411.970771     8     0     0     0     8   3.120 0.128E-18 0.255E-18 0.333E-03
       188.162694      131.176633      288.254493    13     0     0     0     4   3.660 0.128E-33 0.255E-33 0.259E-07
         0.042099       25.641687     2053.958424     1     0     0     0     7   1.560 0.128E+03 0.255E+03 0.000E+00
        24.031469       58.631028      387.606556     9     0     0     0     1   3.240 0.128E-21 0.255E-21 0.481E-06
       183.193514       26.997424     1246.844071     1     0     0     0     6   1.560 0.128E+03 0.255E+03 0.000E+00
       104.256922      191.293224      419.995838    18     0     0     0     4   4.080 0.128E-48 0.255E-48 0.276E-08
       154.114390      184.525554       75.340852    13     0     0     0     1   3.660 0.128E-33 0.255E-33 0.259E-07
       134.691756       73.108936      514.584422    20     0     0     0     6   4.230 0.128E-54 0.255E-54 0.142E-08
       161.856563      155.676731      536.776224    23     0     0     0     1   4.430 0.128E-63 0.255E-63 0.607E-09
        51.053699       95.080533      590.963479    27     0     0     0     4   4.680 0.128E-75 0.255E-75 0.244E-09
       159.750639       22.646851     1947.012049     1     0     0     0     4   1.560 0.128E+03 0.255E+03 0.000E+00
         4.254788      135.226066      559.526675    19     0     0     0     8   4.160 0.128E-51 0.255E-51 0.195E-08
       198.013995      115.722236      265.876575    14     0     0     0     6   3.760 0.128E-36 0.255E-36 0.152E-07
        39.553546       58.691464      282.306919     9     0     0     0     4   3.240 0.128E-21 0.255E-21 0.481E-06
        49.225047      194.879864     1334.474837     1     0     0     0     8   1.560 0.128E+03 0.255E+03 0.000E+00
       194.869118       39.485084      213.927308     9     0     0     0     1   3.240 0.128E-21 0.255E-21 0.481E-06
        66.694939       91.046582      185.777667    10     0     0     0     7   3.360 0.128E-24 0.255E-24 0.198E-06
       144.416710      186.072146     1669.269731     1     0     0     0     5   1.560 0.128E+03 0.255E+03 0.000E+00
        18.077024       95.755857      327.978975    17     0     0     0     6   4.010 0.128E-45 0.255E-45 0.401E-08
        23.171388      155.084804       97.864350    17     0     0     0     6   4.010 0.128E-45 0.255E-45 0.401E-08
        20.166810      162.986807      558.626618    11     0     0     0     6   3.470 0.128E-27 0.255E-27 0.927E-07
        10.229538      109.794347      161.628399    12     0     0     0     3   3.570 0.128E-30 0.255E-30 0.473E-07
        85.048966       55.698511      337.603253    10     0     0     0     2   3.360 0.128E-24 0.255E-24 0.198E-06
       191.647004      106.957208       41.023411    14     0     0     0     1   3.760 0.128E-36 0.255E-36 0.152E-07
         5.545140       14.653202       22.317900    10     0     0     0     5   3.360 0.128E-24 0.255E-24 0.198E-06
        29.094753      135.561647      133.338506     7     0     0     0     8   2.980 0.128E-15 0.255E-15 0.459E-02
       151.769189       18.846613     1552.107287     1     0     0     0     7   1.560 0.128E+03 0.255E+03 0.000E+00
        37.395648       99.975636      587.599734    12     0     0     0     6   3.570 0.128E-30 0.255E-30 0.473E-07
       192.681945       49.246727       64.439787    14     0     0     0     4   3.760 0.128E-36 0.255E-36 0.152E-07
        29.151267        2.864266      960.244923    26     0     0     0     1   4.620 0.128E-72 0.255E-72 0.302E-09
       161.858857      157.536919      646.483439    26     0     0     0     1   4.620 0.128E-72 0.255E-72 0.302E-09
         6.634799       20.574716      319.401105    14     0     0     0     8   3.760 0.128E-36 0.255E-36 0.152E-07
        56.129533      122.381657      155.283408     9     0     0     0     3   3.240 0.128E-21 0.255E-21 0.481E-06
       178.642297      131.002360      373.665615    11     0     0     0     3   3.470 0.128E-27 0.255E-27 0.927E-07
        85.775693       80.531238      160.166091     9     0     0     0     1   3.240 0.128E-21 0.255E-21 0.481E-06
        61.912658        9.958639     1855.517642     1     0     0     0     8   1.560 0.128E+03 0.255E+03 0.000E+00
       185.248997       49.818083      739.747065    20     0     0     0     6   4.230 0.128E-54 0.255E-54 0.142E-08
       182.339901      169.537541      304.966291    15     0     0     0     3   3.840 0.128E-39 0.255E-39 0.931E-08
        58.487605      198.702774      218.865639    11     0     0     0     5   3.470 0.128E-27 0.255E-27 0.927E-07
        82.302099      190.201946     1354.236015     1     0     0     0     7   1.560 0.128E+03 0.255E+03 0.000E+00
        52.189601       96.775709      434.766350    15     0     0     0     5   3.840 0.128E-39 0.255E-39 0.931E-08
       111.569615      171.202644     1194.578743     1     0     0     0     5   1.560 0.128E+03 0.255E+03 0.000E+00
       103.320290       45.503738      122.270463     8     0     0     0     8   3.120 0.128E-18 0.255E-18 0.333E-03
       107.280029       69.512174      796.301420    21     0     0     0     8   4.300 0.128E-57 0.255E-57 0.105E-08
        59.832135      196.933926      405.922872    17     0     0     0     2   4.010 0.128E-45 0.255E-45 0.401E-08
         7.379329      175.715167      457.081692    19     0     0     0     5   4.160 0.128E-51 0.255E-51 0.195E-08
        74.654327      187.007876      576.504350    21     0     0     0     8   4.300 0.128E-57 0.255E-57 0.105E-08
         8.988632      108.286100      307.568735    10     0     0     0     3   3.360 0.128E-24 0.255E-24 0.198E-06
        44.227380       82.479225      853.551643    18     0     0     0     7   4.080 0.128E-48 0.255E-48 0.276E-08
       199.498014      176.036191      779.627938    12     0     0     0     4   3.570 0.128E-30 0.255E-30 0.473E-07
        37.274414      169.798719     1637.919832     1     0     0     0     7   1.560 0.128E+03 0.255E+03 0.000E+00
       184.491451      157.138314      320.519125    12     0     0     0     2   3.570 0.128E-30 0.255E-30 0.473E-07
       163.950828      146.370067      973.779996    46     0     0     0     6   5.580 0.128-132 0.255-132 0.170E-10
        44.510499       36.679824      216.992032     9     0     0     0     5   3.240 0.128E-21 0.255E-21 0.481E-06
        15.242314       78.302770     1453.872258     1     0     0     0     2   1.560 0.128E+03 0.255E+03 0.000E+00
        71.035161       43.369236     1494.559041     1     0     0     0     4   1.560 0.128E+03 0.255E+03 0.000E+00
        19.254229       79.038506      189.797689    18     0     0     0     6   4.080 0.128E-48 0.255E-48 0.276E-08
        37.367311      181.060718      811.704830    20     0     0     0     2   4.230 0.128E-54 0.255E-54 0.142E-08
        74.485718       13.504180     1451.474692     1     0     0     0     8   1.560 0.128E+03 0.255E+03 0.000E+00
        46.419925       25.743459      461.306305    10     0     0     0     5   3.360 0.128E-24 0.255E-24 0.198E-06
       194.942997       13.842474        8.725081     5     0     0     0     8   2.660 0.128E-09 0.255E-09 0.827E-02
        84.213792      164.529367      768.448971    24     0     0     0     1   4.500 0.128E-66 0.255E-66 0.475E-09
       136.157686      115.145489      382.870616     6     0     0     0     5   2.830 0.128E-12 0.255E-12 0.241E-03
       157.066830       30.971370      286.115563    11     0     0     0     6   3.470 0.128E-27 0.255E-27 0.927E-07
       121.818578       42.282754      474.555443    11     0     0     0     5   3.470 0.128E-27 0.255E-27 0.927E-07
       146.706692      119.683645       51.726415     7     0     0     0     2   2.980 0.128E-15 0.255E-15 0.459E-02
        23.753041      119.776041     2224.495229     1     0     0     0     5   1.560 0.128E+03 0.255E+03 0.000E+00
        99.749110      169.042280      201.817924    13     0     0     0     2   3.660 0.128E-33 0.255E-33 0.259E-07
        81.740453       40.801116      619.303770    11     0     0     0     3   3.470 0.128E-27 0.255E-27 0.927E-07
       165.927880       83.647822      344.094978    16     0     0     0     8   3.930 0.128E-42 0.255E-42 0.601E-08
       117.314156       26.131784      435.918395    14     0     0     0     2   3.760 0.128E-36 0.255E-36 0.152E-07
        87.289589       64.997570      464.838703    14     0     0     0     2   3.760 0.128E-36 0.255E-36 0.152E-07
        84.970341       81.855445      289.343433    14     0     0     0     5   3.760 0.128E-36 0.255E-36 0.152E-07
        65.273638       47.718646       48.153904    12     0     0     0     7   3.570 0.128E-30 0.255E-30 0.473E-07
       135.898843       77.139854     1224.414298     1     0     0     0     8   1.560 0.128E+03 0.255E+03 0.000E+00
        47.354822       84.449048      158.471204     9     0     0     0     2   3.240 0.128E-21 0.255E-21 0.481E-06
       124.106070      177.467263      339.654389     7     0     0     0     4   2.980 0.128E-15 0.255E-15 0.459E-02
       132.932591        6.372712     1119.479266     1     0     0     0     3   1.560 0.128E+03 0.255E+03 0.000E+00
        15.647586      133.934744      233.294877    17     0     0     0     1   4.010 0.128E-45 0.255E-45 0.401E-08
        49.003924      180.513502     1550.762225     1     0     0     0     8   1.560 0.128E+03 0.255E+03 0.000E+00
       199.163015      173.442876      465.234410    12     0     0     0     8   3.570 0.128E-30 0.255E-30 0.473E-07
       136.173312        8.965108     1059.614374     1     0     0     0     4   1.560 0.128E+03 0.255E+03 0.000E+00
       173.919202      110.405202      116.268054    12     0     0     0     8   3.570 0.128E-30 0.255E-30 0.473E-07
        71.385227       96.951443     1381.764492     1     0     0     0     6   1.560 0.128E+03 0.255E+03 0.000E+00
        74.953408       16.705855      123.657347     8     0     0     0     4   3.120 0.128E-18 0.255E-18 0.333E-03
        99.879317       42.650675      552.217052    18     0     0     0     2   4.080 0.128E-48 0.255E-48 0.276E-08
       127.271988      121.989306     1200.397182     1     0     0     0     4   1.560 0.128E+03 0.255E+03 0.000E+00
        48.535916      136.371285      504.700148    19     0     0     0     1   4.160 0.128E-51 0.255E-51 0.195E-08
       166.340134      143.361030     1516.765786     1     0     0     0     2   1.560 0.128E+03 0.255E+03 0.000E+00
        90.777168       75.842761      535.626477    15     0     0     0     8   3.840 0.128E-39 0.255E-39 0.931E-08
       125.251883       48.286411      660.119129    27     0     0     0     3   4.680 0.128E-75 0.255E-75 0.244E-09
       191.103471      189.720491      442.072533    13     0     0     0     7   3.660 0.128E-33 0.255E-33 0.259E-07
        32.823934       23.032189      293.747106     7     0     0     0     4   2.980 0.128E-15 0.255E-15 0.459E-02
       116.093904       28.390559       28.726266     9     0     0     0     6   3.240 0.128E-21 0.255E-21 0.481E-06
       193.729080       76.270517      375.330694     8     0     0     0     1   3.120 0.128E-18 0.255E-18 0.333E-03
       120.531350       69.535966      495.664905     9     0     0     0     7   3.240 0.128E-21 0.255E-21 0.481E-06
       185.519586       83.619158       99.297485    12     0     0     0     4   3.570 0.128E-30 0.255E-30 0.473E-07
        50.462968      182.691284      871.456278    34     0     0     0     8   5.050 0.128E-96 0.255E-96 0.724E-10
       180.658745       20.026628     2105.331285     1     0     0     0     4   1.560 0.128E+03 0.255E+03 0.000E+00
       118.971310       49.108488      360.588579    12     0     0     0     3   3.570 0.128E-30 0.255E-30 0.473E-07
        85.279327      110.862333      536.933150    13     0     0     0     7   3.660 0.128E-33 0.255E-33 0.259E-07
        17.214158      161.105156      239.248219    10     0     0     0     7   3.360 0.128E-24 0.255E-24 0.198E-06
       144.497725       61.239522      321.732739    16     0     0     0     3   3.930 0.128E-42 0.255E-42 0.601E-08
         3.383076        8.990276       94.711516    24     0     0     0     4   4.500 0.128E-66 0.255E-66 0.475E-09
       100.749980      178.672054     1840.354663     1     0     0     0     6   1.560 0.128E+03 0.255E+03 0.000E+00
        85.335138      178.988203     1597.438986     1     0     0     0     2   1.560 0.128E+03 0.255E+03 0.000E+00
       106.579410      102.054590       59.121998     6     0     0     0     6   2.830 0.128E-12 0.255E-12 0.241E-03
       129.068781       45.942443      366.161557     8     0     0     0     4   3.120 0.128E-18 0.255E-18 0.333E-03
       129.119593      176.990650     2583.480475     1     0     0     0     3   1.560 0.128E+03 0.255E+03 0.000E+00
       101.224175      186.258487      221.090993    14     0     0     0     6   3.760 0.128E-36 0.255E-36 0.152E-07
       115.982246      192.469510      202.267744    16     0     0     0     1   3.930 0.128E-42 0.255E-42 0.601E-08
       155.472320      182.582328      629.701769    20     0     0     0     1   4.230 0.128E-54 0.255E-54 0.142E-08
        94.867854       38.770102       46.299938    14     0     0     0     8   3.760 0.128E-36 0.255E-36 0.152E-07
        80.422664      138.339351      756.990888    16     0     0     0     6   3.930 0.128E-42 0.255E-42 0.601E-08
        39.214112       34.420921      130.047918    18     0     0     0     8   4.080 0.128E-48 0.255E-48 0.276E-08
        99.904478       14.845673      103.563467    10     0     0     0     8   3.360 0.128E-24 0.255E-24 0.198E-06
        22.258180       97.809548      340.450692    13     0     0     0     4   3.660 0.128E-33 0.255E-33 0.259E-07
       187.031225       97.246626     2293.814693     1     0     0     0     3   1.560 0.128E+03 0.255E+03 0.000E+00
        32.192202      118.320390      682.922112    13     0     0     0     7   3.660 0.128E-33 0.255E-33 0.259E-07
       144.341793      127.742978      244.927566     9     0     0     0     5   3.240 0.128E-21 0.255E-21 0.481E-06
        93.070350       90.751212      911.882230    45     0     0     0     7   5.540 0.128-129 0.255-129 0.188E-10
       126.635138       70.994907       58.804537    13     0     0     0     6   3.660 0.128E-33 0.255E-33 0.259E-07
       196.406185       81.005835      556.198413    15     0     0     0     3   3.840 0.128E-39 0.255E-39 0.931E-08
       172.727275      196.933665     1264.740516     1     0     0     0     7   1.560 0.128E+03 0.255E+03 0.000E+00
       159.633437      159.390900     1857.210080     1     0     0     0     5   1.560 0.128E+03 0.255E+03 0.000E+00
       155.499004      107.888622     1934.190556     1     0     0     0     5   1.560 0.128E+03 0.255E+03 0.000E+00
       168.950532       25.846781      425.365814    12     0     0     0     3   3.570 0.128E-30 0.255E-30 0.473E-07
       137.423390      191.576346     1037.475015    42     0     0     0     2   5.420 0.128-120 0.255-120 0.258E-10
        36.492961       29.758024     1180.901172     1     0     0     0     8   1.560 0.128E+03 0.255E+03 0.000E+00
       167.100723      177.618532      408.587793    12     0     0     0     8   3.570 0.128E-30 0.255E-30 0.473E-07
        72.660095      132.359960      253.137131     7     0     0     0     4   2.980 0.128E-15 0.255E-15 0.459E-02
        20.533618       83.983208       73.034931    10     0     0     0     1   3.360 0.128E-24 0.255E-24 0.198E-06
       149.523570       24.503941      234.071743    10     0     0     0     1   3.360 0.128E-24 0.255E-24 0.198E-06
        65.263874      169.709577     1173.109714     1     0     0     0     7   1.560 0.128E+03 0.255E+03 0.000E+00