ITEM: TIMESTEP
0
ITEM: NUMBER OF ATOMS
         506
ITEM: BOX BOUNDS pp pp pp
  0.0000000E+00   200.000000000000     
  0.0000000E+00   200.000000000000     
  0.0000000E+00   5000.00000000000     
ITEM: ATOMS x y z f1 f2 f3 f4 orient radius rate_mig rate_rot rate_emit
        42.085409       15.425974      513.798196    13     0     0     0     6   3.660 0.223E-33 0.446E-33 0.807E-07
       156.833165       82.166430      500.425169    12     0     0     0     2   3.570 0.223E-30 0.446E-30 0.145E-06
       162.588507      149.721875     1722.492849     1     0     0     0     2   1.560 0.223E+03 0.446E+03 0.000E+00
       184.083417       43.233440     1389.504250     1     0     0     0     6   1.560 0.223E+03 0.446E+03 0.000E+00
        87.302005      152.429467       92.463803    11     0     0     0     2   3.470 0.223E-27 0.446E-27 0.280E-06
        57.483120       95.859722       70.969911    10     0     0     0     8   3.360 0.223E-24 0.446E-24 0.588E-06
        24.010178       12.065779       94.375933    16     0     0     0     7   3.930 0.223E-42 0.446E-42 0.194E-07
        33.949085      189.655045      289.120468     6     0     0     0     1   2.830 0.223E-12 0.446E-12 0.602E-03
        79.880707      149.743571      424.642667    12     0     0     0     7   3.570 0.223E-30 0.446E-30 0.145E-06
         8.080739       81.768265     1119.977911     1     0     0     0     5   1.560 0.223E+03 0.446E+03 0.000E+00
        70.462996        1.567794      126.675654    12     0     0     0     5   3.570 0.223E-30 0.446E-30 0.145E-06
       178.167335      159.217288       40.589806     7     0     0     0     6   2.980 0.223E-15 0.446E-15 0.107E-01
       129.655182       26.490380      103.759805    10     0     0     0     3   3.360 0.223E-24 0.446E-24 0.588E-06
       138.248213       95.792369      529.222476    14     0     0     0     2   3.760 0.223E-36 0.446E-36 0.479E-07
       154.982131      189.888104       89.663860     8     0     0     0     8   3.120 0.223E-18 0.446E-18 0.827E-03
        48.439494       62.702755     1902.004190     1     0     0     0     5   1.560 0.223E+03 0.446E+03 0.000E+00
       120.053956       52.522876      703.534843    22     0     0     0     2   4.370 0.223E-60 0.446E-60 0.270E-08
        79.016203        3.171207      685.268528    21     0     0     0     7   4.300 0.223E-57 0.446E-57 0.354E-08
        94.656289      139.871803      191.245201    24     0     0     0     3   4.500 0.223E-66 0.446E-66 0.164E-08
       165.268347       64.238950     1865.628657     1     0     0     0     1   1.560 0.223E+03 0.446E+03 0.000E+00
        82.658531      117.489808      437.260206    13     0     0     0     2   3.660 0.223E-33 0.446E-33 0.807E-07
        71.636003       65.352601      431.119106    18     0     0     0     1   4.080 0.223E-48 0.446E-48 0.909E-08
        33.229912      114.915526      166.901534    14     0     0     0     5   3.760 0.223E-36 0.446E-36 0.479E-07
        53.686581       88.143623      695.932070    19     0     0     0     1   4.160 0.223E-51 0.446E-51 0.650E-08
       182.973458       80.026475      160.941458    13     0     0     0     1   3.660 0.223E-33 0.446E-33 0.807E-07
       163.268713       97.526871       98.992024     8     0     0     0     5   3.120 0.223E-18 0.446E-18 0.827E-03
       148.350599       15.307597     1641.742328     1     0     0     0     5   1.560 0.223E+03 0.446E+03 0.000E+00
       107.792539       50.178326      514.988442     9     0     0     0     1   3.240 0.223E-21 0.446E-21 0.140E-05
       121.505775       77.229141      395.522477    14     0     0     0     2   3.760 0.223E-36 0.446E-36 0.479E-07
       133.901392      104.550800      300.260916     9     0     0     0     6   3.240 0.223E-21 0.446E-21 0.140E-05
        84.381127      193.194324      395.657210    13     0     0     0     4   3.660 0.223E-33 0.446E-33 0.807E-07
       156.542273      150.372366      189.882206     9     0     0     0     5   3.240 0.223E-21 0.446E-21 0.140E-05
        84.249420       51.644100      299.627423     8     0     0     0     6   3.120 0.223E-18 0.446E-18 0.827E-03
       105.636755       96.246122       77.162972    12     0     0     0     1   3.570 0.223E-30 0.446E-30 0.145E-06
       116.192756       90.449336     1459.474567     1     0     0     0     7   1.560 0.223E+03 0.446E+03 0.000E+00
       163.811121       40.794576      360.037234    10     0     0     0     8   3.360 0.223E-24 0.446E-24 0.588E-06
       147.168263      181.149738      270.992300    10     0     0     0     6   3.360 0.223E-24 0.446E-24 0.588E-06
       133.523235      128.058272      873.589551    16     0     0     0     5   3.930 0.223E-42 0.446E-42 0.194E-07
       131.526284      116.134378      460.222683    12     0     0     0     3   3.570 0.223E-30 0.446E-30 0.145E-06
        16.708104       23.030811     1038.241185     1     0     0     0     3   1.560 0.223E+03 0.446E+03 0.000E+00
        27.083587       16.609617      372.239203     9     0     0     0     4   3.240 0.223E-21 0.446E-21 0.140E-05
       159.053500       69.830128       31.437147     9     0     0     0     3   3.240 0.223E-21 0.446E-21 0.140E-05
       116.469202       70.550058      668.714295    10     0     0     0     5   3.360 0.223E-24 0.446E-24 0.588E-06
         5.360476      112.649535     2009.878026     1     0     0     0     3   1.560 0.223E+03 0.446E+03 0.000E+00
       118.313144      104.423288      852.467424    32     0     0     0     2   4.950 0.223E-90 0.446E-90 0.354E-09
       115.528924       80.687873     1101.530882     1     0     0     0     4   1.560 0.223E+03 0.446E+03 0.000E+00
       163.899657       47.470992      252.619155     8     0     0     0     2   3.120 0.223E-18 0.446E-18 0.827E-03
       179.750033       71.423590      147.753978     7     0     0     0     8   2.980 0.223E-15 0.446E-15 0.107E-01
       107.459595       23.806586     1968.949839     1     0     0     0     8   1.560 0.223E+03 0.446E+03 0.000E+00
        40.104129      152.146018      746.090082    21     0     0     0     2   4.300 0.223E-57 0.446E-57 0.354E-08
        91.102516       27.250869      230.658806     9     0     0     0     6   3.240 0.223E-21 0.446E-21 0.140E-05
       153.993862      105.987717      465.100181    17     0     0     0     1   4.010 0.223E-45 0.446E-45 0.131E-07
       178.981017      162.215417      439.465079     6     0     0     0     1   2.830 0.223E-12 0.446E-12 0.602E-03
        72.878291        7.945426      166.329290    11     0     0     0     2   3.470 0.223E-27 0.446E-27 0.280E-06
       190.684614      172.435448      609.646305    15     0     0     0     1   3.840 0.223E-39 0.446E-39 0.298E-07
       119.026999       79.477789     2078.907940     1     0     0     0     3   1.560 0.223E+03 0.446E+03 0.000E+00
       189.625262       48.658551       51.156701    14     0     0     0     8   3.760 0.223E-36 0.446E-36 0.479E-07
        47.815967       75.836501      316.915706     9     0     0     0     5   3.240 0.223E-21 0.446E-21 0.140E-05
       120.987692       93.228463      419.160634    12     0     0     0     7   3.570 0.223E-30 0.446E-30 0.145E-06
        69.915281       31.162092      407.321537    11     0     0     0     2   3.470 0.223E-27 0.446E-27 0.280E-06
       198.706249       28.854689      618.456514    26     0     0     0     5   4.620 0.223E-72 0.446E-72 0.105E-08
       124.121270       61.993981      212.204042    14     0     0     0     3   3.760 0.223E-36 0.446E-36 0.479E-07
        11.897631       96.102907      270.102150    14     0     0     0     7   3.760 0.223E-36 0.446E-36 0.479E-07
       107.297127      164.566819     1772.220763     1     0     0     0     6   1.560 0.223E+03 0.446E+03 0.000E+00
       118.314836        4.307558     1308.364400     1     0     0     0     8   1.560 0.223E+03 0.446E+03 0.000E+00
       167.800373      167.717694       27.241053    11     0     0     0     4   3.470 0.223E-27 0.446E-27 0.280E-06
        37.186418      195.649905     1068.843728     1     0     0     0     8   1.560 0.223E+03 0.446E+03 0.000E+00
       188.542163      156.385956      960.448718    24     0     0     0     6   4.500 0.223E-66 0.446E-66 0.164E-08
       132.133583       35.970244      458.465231    13     0     0     0     1   3.660 0.223E-33 0.446E-33 0.807E-07
       195.175145       78.858377       17.046681     9     0     0     0     3   3.240 0.223E-21 0.446E-21 0.140E-05
       164.969134       57.629101       91.534164    11     0     0     0     7   3.470 0.223E-27 0.446E-27 0.280E-06
       180.928504       22.893776      498.095555    14     0     0     0     1   3.760 0.223E-36 0.446E-36 0.479E-07
       168.245356      125.321838       79.504564     9     0     0     0     5   3.240 0.223E-21 0.446E-21 0.140E-05
       171.778902       42.118426      844.098461    12     0     0     0     1   3.570 0.223E-30 0.446E-30 0.145E-06
       140.199234        4.084596      237.410045    11     0     0     0     6   3.470 0.223E-27 0.446E-27 0.280E-06
        14.620965       42.030617       75.171912    17     0     0     0     4   4.010 0.223E-45 0.446E-45 0.131E-07
       119.343147       98.027318       54.225113     9     0     0     0     5   3.240 0.223E-21 0.446E-21 0.140E-05
       192.179569      187.955661     1631.631927     1     0     0     0     5   1.560 0.223E+03 0.446E+03 0.000E+00
       124.211391       27.256853     1494.382370     1     0     0     0     2   1.560 0.223E+03 0.446E+03 0.000E+00
       182.536515      123.660241      154.057776    12     0     0     0     5   3.570 0.223E-30 0.446E-30 0.145E-06
        85.330429       52.827798      649.399830    23     0     0     0     3   4.430 0.223E-63 0.446E-63 0.208E-08
       116.105942        4.551717      458.572817     9     0     0     0     5   3.240 0.223E-21 0.446E-21 0.140E-05
         9.034998       29.961261      372.519227    12     0     0     0     2   3.570 0.223E-30 0.446E-30 0.145E-06
       196.855819      130.746666      151.344618    13     0     0     0     3   3.660 0.223E-33 0.446E-33 0.807E-07
       132.351512       14.940798     1553.409068     1     0     0     0     3   1.560 0.223E+03 0.446E+03 0.000E+00
        62.596376      142.325975      174.362461    17     0     0     0     5   4.010 0.223E-45 0.446E-45 0.131E-07
        56.656369      154.011464      815.380394    13     0     0     0     7   3.660 0.223E-33 0.446E-33 0.807E-07
        95.486151       81.762349      370.799259    16     0     0     0     1   3.930 0.223E-42 0.446E-42 0.194E-07
        63.585400      127.145171      101.709727    11     0     0     0     2   3.470 0.223E-27 0.446E-27 0.280E-06
       154.326464       58.454915      530.595148    13     0     0     0     5   3.660 0.223E-33 0.446E-33 0.807E-07
        86.285633      164.519133      163.374767    14     0     0     0     3   3.760 0.223E-36 0.446E-36 0.479E-07
       140.277058      119.318535      725.001754    24     0     0     0     8   4.500 0.223E-66 0.446E-66 0.164E-08
        43.347867      174.956552      484.157785    23     0     0     0     7   4.430 0.223E-63 0.446E-63 0.208E-08
        14.092978       47.794818     1153.741521     1     0     0     0     2   1.560 0.223E+03 0.446E+03 0.000E+00
        63.514784        9.564383      426.956287     9     0     0     0     3   3.240 0.223E-21 0.446E-21 0.140E-05
       187.804135       88.098847      320.517775    12     0     0     0     7   3.570 0.223E-30 0.446E-30 0.145E-06
        59.722272       56.689682     1589.402237     1     0     0     0     3   1.560 0.223E+03 0.446E+03 0.000E+00
       198.175322      128.462898       39.728176     8     0     0     0     1   3.120 0.223E-18 0.446E-18 0.827E-03
        79.104039       17.538163      338.377627    14     0     0     0     2   3.760 0.223E-36 0.446E-36 0.479E-07
        76.507429      126.945405      222.564160    15     0     0     0     4   3.840 0.223E-39 0.446E-39 0.298E-07
       163.759382      194.260116      700.347634    26     0     0     0     6   4.620 0.223E-72 0.446E-72 0.105E-08
        91.555690      168.567916       66.232380    16     0     0     0     7   3.930 0.223E-42 0.446E-42 0.194E-07
        91.242323      103.185768      131.290292    10     0     0     0     6   3.360 0.223E-24 0.446E-24 0.588E-06
        60.288187      192.398045      293.248906     7     0     0     0     5   2.980 0.223E-15 0.446E-15 0.107E-01
        29.144327       51.612086      654.601244    14     0     0     0     8   3.760 0.223E-36 0.446E-36 0.479E-07
        36.360304       69.880422      158.509075    10     0     0     0     1   3.360 0.223E-24 0.446E-24 0.588E-06
       156.290046       89.501436       64.003936    10     0     0     0     8   3.360 0.223E-24 0.446E-24 0.588E-06
        14.297527      191.558534      818.868754    16     0     0     0     5   3.930 0.223E-42 0.446E-42 0.194E-07
        86.620927      153.975224      121.417730    11     0     0     0     6   3.470 0.223E-27 0.446E-27 0.280E-06
       181.520875       29.850086      287.197145    14     0     0     0     1   3.760 0.223E-36 0.446E-36 0.479E-07
       132.145149       38.579207       49.018579    16     0     0     0     5   3.930 0.223E-42 0.446E-42 0.194E-07
       146.496027       50.757826       95.220335     8     0     0     0     5   3.120 0.223E-18 0.446E-18 0.827E-03
       198.452540        6.519406      681.277720    24     0     0     0     2   4.500 0.223E-66 0.446E-66 0.164E-08
       153.394634      110.882309      235.431680     9     0     0     0     5   3.240 0.223E-21 0.446E-21 0.140E-05
       129.980780      171.361398     1355.893610     1     0     0     0     2   1.560 0.223E+03 0.446E+03 0.000E+00
       122.142433      104.853424     1310.641821     1     0     0     0     8   1.560 0.223E+03 0.446E+03 0.000E+00
       164.681065       64.923158     2209.922922     1     0     0     0     1   1.560 0.223E+03 0.446E+03 0.000E+00
       163.677882        1.316962      411.970771     8     0     0     0     8   3.120 0.223E-18 0.446E-18 0.827E-03
       188.162694      131.176633      288.254493    13     0     0     0     4   3.660 0.223E-33 0.446E-33 0.807E-07
        67.105813      117.431027     2224.876505     1     0     0     0     8   1.560 0.223E+03 0.446E+03 0.000E+00
        24.031469       58.631028      387.606556     9     0     0     0     1   3.240 0.223E-21 0.446E-21 0.140E-05
       110.830622      165.177290     1046.422902     1     0     0     0     5   1.560 0.223E+03 0.446E+03 0.000E+00
       104.256922      191.293224      419.995838    18     0     0     0     4   4.080 0.223E-48 0.446E-48 0.909E-08
       154.114390      184.525554       75.340852    13     0     0     0     1   3.660 0.223E-33 0.446E-33 0.807E-07
       134.691756       73.108936      514.584422    20     0     0     0     6   4.230 0.223E-54 0.446E-54 0.476E-08
       161.856563      155.676731      536.776224    23     0     0     0     1   4.430 0.223E-63 0.446E-63 0.208E-08
        51.053699       95.080533      590.963479    27     0     0     0     4   4.680 0.223E-75 0.446E-75 0.856E-09
       121.893125      194.639318     1456.281298     1     0     0     0     4   1.560 0.223E+03 0.446E+03 0.000E+00
         4.254788      135.226066      559.526675    19     0     0     0     8   4.160 0.223E-51 0.446E-51 0.650E-08
       198.013995      115.722236      265.876575    14     0     0     0     6   3.760 0.223E-36 0.446E-36 0.479E-07
        39.553546       58.691464      282.306919     9     0     0     0     4   3.240 0.223E-21 0.446E-21 0.140E-05
       137.645673       63.783742     1196.739565     1     0     0     0     5   1.560 0.223E+03 0.446E+03 0.000E+00
       194.869118       39.485084      213.927308     9     0     0     0     1   3.240 0.223E-21 0.446E-21 0.140E-05
        66.694939       91.046582      185.777667    10     0     0     0     7   3.360 0.223E-24 0.446E-24 0.588E-06
       160.531660      129.886990     1345.700652     1     0     0     0     3   1.560 0.223E+03 0.446E+03 0.000E+00
        18.077024       95.755857      327.978975    17     0     0     0     6   4.010 0.223E-45 0.446E-45 0.131E-07
        23.171388      155.084804       97.864350    17     0     0     0     6   4.010 0.223E-45 0.446E-45 0.131E-07
        20.166810      162.986807      558.626618    11     0     0     0     6   3.470 0.223E-27 0.446E-27 0.280E-06
        10.229538      109.794347      161.628399    12     0     0     0     3   3.570 0.223E-30 0.446E-30 0.145E-06
        85.048966       55.698511      337.603253    10     0     0     0     2   3.360 0.223E-24 0.446E-24 0.588E-06
       191.647004      106.957208       41.023411    14     0     0     0     1   3.760 0.223E-36 0.446E-36 0.479E-07
         5.545140       14.653202       22.317900    10     0     0     0     5   3.360 0.223E-24 0.446E-24 0.588E-06
        29.094753      135.561647      133.338506     7     0     0     0     8   2.980 0.223E-15 0.446E-15 0.107E-01
        75.805597       60.589130     1491.969444     1     0     0     0     8   1.560 0.223E+03 0.446E+03 0.000E+00
        37.395648       99.975636      587.599734    12     0     0     0     6   3.570 0.223E-30 0.446E-30 0.145E-06
       192.681945       49.246727       64.439787    14     0     0     0     4   3.760 0.223E-36 0.446E-36 0.479E-07
       196.664784       82.363615     1541.584104     1     0     0     0     7   1.560 0.223E+03 0.446E+03 0.000E+00
       161.858857      157.536919      646.483439    26     0     0     0     1   4.620 0.223E-72 0.446E-72 0.105E-08
         6.634799       20.574716      319.401105    14     0     0     0     8   3.760 0.223E-36 0.446E-36 0.479E-07
        56.129533      122.381657      155.283408     9     0     0     0     3   3.240 0.223E-21 0.446E-21 0.140E-05
       178.642297      131.002360      373.665615    11     0     0     0     3   3.470 0.223E-27 0.446E-27 0.280E-06
        85.775693       80.531238      160.166091     9     0     0     0     1   3.240 0.223E-21 0.446E-21 0.140E-05
       156.867147      101.747978     1633.957166     1     0     0     0     3   1.560 0.223E+03 0.446E+03 0.000E+00
       185.248997       49.818083      739.747065    20     0     0     0     6   4.230 0.223E-54 0.446E-54 0.476E-08
       182.339901      169.537541      304.966291    15     0     0     0     3   3.840 0.223E-39 0.446E-39 0.298E-07
        58.487605      198.702774      218.865639    11     0     0     0     5   3.470 0.223E-27 0.446E-27 0.280E-06
        88.632399       63.000387     1357.401164     1     0     0     0     5   1.560 0.223E+03 0.446E+03 0.000E+00
        52.189601       96.775709      434.766350    15     0     0     0     5   3.840 0.223E-39 0.446E-39 0.298E-07
       122.559401      152.352351     1406.533599     1     0     0     0     2   1.560 0.223E+03 0.446E+03 0.000E+00
       103.320290       45.503738      122.270463     8     0     0     0     8   3.120 0.223E-18 0.446E-18 0.827E-03
       107.280029       69.512174      796.301420    21     0     0     0     8   4.300 0.223E-57 0.446E-57 0.354E-08
        59.832135      196.933926      405.922872    17     0     0     0     2   4.010 0.223E-45 0.446E-45 0.131E-07
         7.379329      175.715167      457.081692    19     0     0     0     5   4.160 0.223E-51 0.446E-51 0.650E-08
        74.654327      187.007876      576.504350    21     0     0     0     8   4.300 0.223E-57 0.446E-57 0.354E-08
         8.988632      108.286100      307.568735    10     0     0     0     3   3.360 0.223E-24 0.446E-24 0.588E-06
        32.079899       73.618573     1267.488178     1     0     0     0     4   1.560 0.223E+03 0.446E+03 0.000E+00
       199.498014      176.036191      779.627938    12     0     0     0     4   3.570 0.223E-30 0.446E-30 0.145E-06
        12.810888      108.755187     1110.571062     1     0     0     0     3   1.560 0.223E+03 0.446E+03 0.000E+00
       184.491451      157.138314      320.519125    12     0     0     0     2   3.570 0.223E-30 0.446E-30 0.145E-06
       163.950828      146.370067      973.779996    46     0     0     0     6   5.580 0.223-132 0.446-132 0.639E-10
        44.510499       36.679824      216.992032     9     0     0     0     5   3.240 0.223E-21 0.446E-21 0.140E-05
        29.368945        3.013864      960.430100    28     0     0     0     2   4.730 0.223E-78 0.446E-78 0.704E-09
        33.472437      128.220832      806.600596    27     0     0     0     8   4.680 0.223E-75 0.446E-75 0.856E-09
        19.254229       79.038506      189.797689    18     0     0     0     6   4.080 0.223E-48 0.446E-48 0.909E-08
        37.367311      181.060718      811.704830    20     0     0     0     2   4.230 0.223E-54 0.446E-54 0.476E-08
        52.536170       51.039896     1625.082869     1     0     0     0     4   1.560 0.223E+03 0.446E+03 0.000E+00
        46.419925       25.743459      461.306305    10     0     0     0     5   3.360 0.223E-24 0.446E-24 0.588E-06
       194.942997       13.842474        8.725081     5     0     0     0     8   2.660 0.223E-09 0.446E-09 0.189E-01
        84.213792      164.529367      768.448971    24     0     0     0     1   4.500 0.223E-66 0.446E-66 0.164E-08
       136.157686      115.145489      382.870616     6     0     0     0     5   2.830 0.223E-12 0.446E-12 0.602E-03
       157.066830       30.971370      286.115563    11     0     0     0     6   3.470 0.223E-27 0.446E-27 0.280E-06
       121.818578       42.282754      474.555443    11     0     0     0     5   3.470 0.223E-27 0.446E-27 0.280E-06
       146.706692      119.683645       51.726415     7     0     0     0     2   2.980 0.223E-15 0.446E-15 0.107E-01
       172.614767       10.151455     1120.753833     1     0     0     0     2   1.560 0.223E+03 0.446E+03 0.000E+00
        99.749110      169.042280      201.817924    13     0     0     0     2   3.660 0.223E-33 0.446E-33 0.807E-07
        81.740453       40.801116      619.303770    11     0     0     0     3   3.470 0.223E-27 0.446E-27 0.280E-06
       165.927880       83.647822      344.094978    16     0     0     0     8   3.930 0.223E-42 0.446E-42 0.194E-07
       117.314156       26.131784      435.918395    14     0     0     0     2   3.760 0.223E-36 0.446E-36 0.479E-07
        87.289589       64.997570      464.838703    14     0     0     0     2   3.760 0.223E-36 0.446E-36 0.479E-07
        84.970341       81.855445      289.343433    14     0     0     0     5   3.760 0.223E-36 0.446E-36 0.479E-07
        65.273638       47.718646       48.153904    12     0     0     0     7   3.570 0.223E-30 0.446E-30 0.145E-06
        73.582852      171.107341     1476.043695     1     0     0     0     6   1.560 0.223E+03 0.446E+03 0.000E+00
        47.354822       84.449048      158.471204     9     0     0     0     2   3.240 0.223E-21 0.446E-21 0.140E-05
       124.106070      177.467263      339.654389     7     0     0     0     4   2.980 0.223E-15 0.446E-15 0.107E-01
        59.942700       23.938973      303.833771    18     0     0     0     5   4.080 0.223E-48 0.446E-48 0.909E-08
        15.647586      133.934744      233.294877    17     0     0     0     1   4.010 0.223E-45 0.446E-45 0.131E-07
        43.269650      177.134523     1518.701103     1     0     0     0     8   1.560 0.223E+03 0.446E+03 0.000E+00
       199.163015      173.442876      465.234410    12     0     0     0     8   3.570 0.223E-30 0.446E-30 0.145E-06
       193.141288       59.693411     1454.326273     1     0     0     0     1   1.560 0.223E+03 0.446E+03 0.000E+00
       173.919202      110.405202      116.268054    12     0     0     0     8   3.570 0.223E-30 0.446E-30 0.145E-06
        92.986520       90.799107      911.761889    46     0     0     0     1   5.580 0.223-132 0.446-132 0.639E-10
        74.953408       16.705855      123.657347     8     0     0     0     4   3.120 0.223E-18 0.446E-18 0.827E-03
        99.879317       42.650675      552.217052    18     0     0     0     2   4.080 0.223E-48 0.446E-48 0.909E-08
        85.529470       20.704517     1190.901733     1     0     0     0     8   1.560 0.223E+03 0.446E+03 0.000E+00
        48.535916      136.371285      504.700148    19     0     0     0     1   4.160 0.223E-51 0.446E-51 0.650E-08
        29.912484      137.137042     1591.807994     1     0     0     0     6   1.560 0.223E+03 0.446E+03 0.000E+00
        90.777168       75.842761      535.626477    15     0     0     0     8   3.840 0.223E-39 0.446E-39 0.298E-07
       125.251883       48.286411      660.119129    27     0     0     0     3   4.680 0.223E-75 0.446E-75 0.856E-09
       191.103471      189.720491      442.072533    13     0     0     0     7   3.660 0.223E-33 0.446E-33 0.807E-07
        32.823934       23.032189      293.747106     7     0     0     0     4   2.980 0.223E-15 0.446E-15 0.107E-01
       116.093904       28.390559       28.726266     9     0     0     0     6   3.240 0.223E-21 0.446E-21 0.140E-05
       193.729080       76.270517      375.330694     8     0     0     0     1   3.120 0.223E-18 0.446E-18 0.827E-03
       120.531350       69.535966      495.664905     9     0     0     0     7   3.240 0.223E-21 0.446E-21 0.140E-05
       185.519586       83.619158       99.297485    12     0     0     0     4   3.570 0.223E-30 0.446E-30 0.145E-06
        50.462968      182.691284      871.456278    34     0     0     0     8   5.050 0.223E-96 0.446E-96 0.262E-09
       193.835122       46.006148     2042.465384     1     0     0     0     6   1.560 0.223E+03 0.446E+03 0.000E+00
       118.971310       49.108488      360.588579    12     0     0     0     3   3.570 0.223E-30 0.446E-30 0.145E-06
        85.279327      110.862333      536.933150    13     0     0     0     7   3.660 0.223E-33 0.446E-33 0.807E-07
        17.214158      161.105156      239.248219    10     0     0     0     7   3.360 0.223E-24 0.446E-24 0.588E-06
       144.497725       61.239522      321.732739    16     0     0     0     3   3.930 0.223E-42 0.446E-42 0.194E-07
         3.383076        8.990276       94.711516    24     0     0     0     4   4.500 0.223E-66 0.446E-66 0.164E-08
        24.467793       98.662892     2103.285347     1     0     0     0     5   1.560 0.223E+03 0.446E+03 0.000E+00
        42.605618      180.570778     1773.104791     1     0     0     0     6   1.560 0.223E+03 0.446E+03 0.000E+00
       106.579410      102.054590       59.121998     6     0     0     0     6   2.830 0.223E-12 0.446E-12 0.602E-03
       129.068781       45.942443      366.161557     8     0     0     0     4   3.120 0.223E-18 0.446E-18 0.827E-03
        72.146899      192.816399     2418.892693     1     0     0     0     5   1.560 0.223E+03 0.446E+03 0.000E+00
       101.224175      186.258487      221.090993    14     0     0     0     6   3.760 0.223E-36 0.446E-36 0.479E-07
       115.982246      192.469510      202.267744    16     0     0     0     1   3.930 0.223E-42 0.446E-42 0.194E-07
       155.472320      182.582328      629.701769    20     0     0     0     1   4.230 0.223E-54 0.446E-54 0.476E-08
        94.867854       38.770102       46.299938    14     0     0     0     8   3.760 0.223E-36 0.446E-36 0.479E-07
        80.422664      138.339351      756.990888    16     0     0     0     6   3.930 0.223E-42 0.446E-42 0.194E-07
        39.214112       34.420921      130.047918    18     0     0     0     8   4.080 0.223E-48 0.446E-48 0.909E-08
        99.904478       14.845673      103.563467    10     0     0     0     8   3.360 0.223E-24 0.446E-24 0.588E-06
        22.258180       97.809548      340.450692    13     0     0     0     4   3.660 0.223E-33 0.446E-33 0.807E-07
        29.760745       39.286929     2118.148888     1     0     0     0     8   1.560 0.223E+03 0.446E+03 0.000E+00
        32.192202      118.320390      682.922112    13     0     0     0     7   3.660 0.223E-33 0.446E-33 0.807E-07
       144.341793      127.742978      244.927566     9     0     0     0     5   3.240 0.223E-21 0.446E-21 0.140E-05
       165.524899        4.020795     1886.545409     1     0     0     0     6   1.560 0.223E+03 0.446E+03 0.000E+00
       126.635138       70.994907       58.804537    13     0     0     0     6   3.660 0.223E-33 0.446E-33 0.807E-07
       196.406185       81.005835      556.198413    15     0     0     0     3   3.840 0.223E-39 0.446E-39 0.298E-07
       102.744636       43.613619     1013.141181     1     0     0     0     2   1.560 0.223E+03 0.446E+03 0.000E+00
        94.477899      181.175541     1843.524319     1     0     0     0     8   1.560 0.223E+03 0.446E+03 0.000E+00
        75.179118       28.164309     1855.061815     1     0     0     0     3   1.560 0.223E+03 0.446E+03 0.000E+00
       168.950532       25.846781      425.365814    12     0     0     0     3   3.570 0.223E-30 0.446E-30 0.145E-06
       122.847730      134.822810       83.015571    11     0     0     0     6   3.470 0.223E-27 0.446E-27 0.280E-06
        95.381064      159.484656     1622.126216     1     0     0     0     7   1.560 0.223E+03 0.446E+03 0.000E+00
       167.100723      177.618532      408.587793    12     0     0     0     8   3.570 0.223E-30 0.446E-30 0.145E-06
        72.660095      132.359960      253.137131     7     0     0     0     4   2.980 0.223E-15 0.446E-15 0.107E-01
        20.533618       83.983208       73.034931    10     0     0     0     1   3.360 0.223E-24 0.446E-24 0.588E-06
       149.523570       24.503941      234.071743    10     0     0     0     1   3.360 0.223E-24 0.446E-24 0.588E-06
       153.888064        4.526223     1195.265761     1     0     0     0     3   1.560 0.223E+03 0.446E+03 0.000E+00