ITEM: TIMESTEP
0
ITEM: NUMBER OF ATOMS
         495
ITEM: BOX BOUNDS pp pp pp
  0.0000000E+00   200.000000000000     
  0.0000000E+00   200.000000000000     
  0.0000000E+00   5000.00000000000     
ITEM: ATOMS x y z f1 f2 f3 f4 orient radius rate_mig rate_rot rate_emit
        42.085409       15.425974      513.798196    13     0     0     0     6   3.660 0.380E-33 0.761E-33 0.239E-06
       156.833165       82.166430      500.425169    12     0     0     0     2   3.570 0.380E-30 0.761E-30 0.424E-06
         9.556699      135.913825     1385.733815     1     0     0     0     3   1.560 0.380E+03 0.761E+03 0.000E+00
       159.136515        4.143965     2345.484898     1     0     0     0     2   1.560 0.380E+03 0.761E+03 0.000E+00
        87.302005      152.429467       92.463803    11     0     0     0     2   3.470 0.380E-27 0.761E-27 0.804E-06
        57.483120       95.859722       70.969911    10     0     0     0     8   3.360 0.380E-24 0.761E-24 0.166E-05
        24.010178       12.065779       94.375933    16     0     0     0     7   3.930 0.380E-42 0.761E-42 0.595E-07
        33.949085      189.655045      289.120468     6     0     0     0     1   2.830 0.380E-12 0.761E-12 0.144E-02
        79.880707      149.743571      424.642667    12     0     0     0     7   3.570 0.380E-30 0.761E-30 0.424E-06
        81.700878       44.581922     1647.313591     1     0     0     0     4   1.560 0.380E+03 0.761E+03 0.000E+00
        70.462996        1.567794      126.675654    12     0     0     0     5   3.570 0.380E-30 0.761E-30 0.424E-06
       178.167335      159.217288       40.589806     7     0     0     0     6   2.980 0.380E-15 0.761E-15 0.239E-01
       129.655182       26.490380      103.759805    10     0     0     0     3   3.360 0.380E-24 0.761E-24 0.166E-05
       138.248213       95.792369      529.222476    14     0     0     0     2   3.760 0.380E-36 0.761E-36 0.144E-06
       154.982131      189.888104       89.663860     8     0     0     0     8   3.120 0.380E-18 0.761E-18 0.196E-02
       116.025137      185.560869     1300.125445     1     0     0     0     1   1.560 0.380E+03 0.761E+03 0.000E+00
       120.053956       52.522876      703.534843    22     0     0     0     2   4.370 0.380E-60 0.761E-60 0.867E-08
        79.016203        3.171207      685.268528    21     0     0     0     7   4.300 0.380E-57 0.761E-57 0.113E-07
        94.656289      139.871803      191.245201    24     0     0     0     3   4.500 0.380E-66 0.761E-66 0.533E-08
       131.155066       12.980216     1583.690170     1     0     0     0     7   1.560 0.380E+03 0.761E+03 0.000E+00
        82.658531      117.489808      437.260206    13     0     0     0     2   3.660 0.380E-33 0.761E-33 0.239E-06
        71.636003       65.352601      431.119106    18     0     0     0     1   4.080 0.380E-48 0.761E-48 0.284E-07
        33.229912      114.915526      166.901534    14     0     0     0     5   3.760 0.380E-36 0.761E-36 0.144E-06
        53.686581       88.143623      695.932070    19     0     0     0     1   4.160 0.380E-51 0.761E-51 0.204E-07
       182.973458       80.026475      160.941458    13     0     0     0     1   3.660 0.380E-33 0.761E-33 0.239E-06
       163.268713       97.526871       98.992024     8     0     0     0     5   3.120 0.380E-18 0.761E-18 0.196E-02
       124.613415      151.494855     1614.146056     1     0     0     0     1   1.560 0.380E+03 0.761E+03 0.000E+00
       107.792539       50.178326      514.988442     9     0     0     0     1   3.240 0.380E-21 0.761E-21 0.385E-05
       121.505775       77.229141      395.522477    14     0     0     0     2   3.760 0.380E-36 0.761E-36 0.144E-06
       133.901392      104.550800      300.260916     9     0     0     0     6   3.240 0.380E-21 0.761E-21 0.385E-05
        84.381127      193.194324      395.657210    13     0     0     0     4   3.660 0.380E-33 0.761E-33 0.239E-06
       156.542273      150.372366      189.882206     9     0     0     0     5   3.240 0.380E-21 0.761E-21 0.385E-05
        84.249420       51.644100      299.627423     8     0     0     0     6   3.120 0.380E-18 0.761E-18 0.196E-02
       105.636755       96.246122       77.162972    12     0     0     0     1   3.570 0.380E-30 0.761E-30 0.424E-06
       182.918028      137.646638     1929.024163     1     0     0     0     4   1.560 0.380E+03 0.761E+03 0.000E+00
       163.811121       40.794576      360.037234    10     0     0     0     8   3.360 0.380E-24 0.761E-24 0.166E-05
       147.168263      181.149738      270.992300    10     0     0     0     6   3.360 0.380E-24 0.761E-24 0.166E-05
        91.422918      129.986307     1937.845775     1     0     0     0     4   1.560 0.380E+03 0.761E+03 0.000E+00
       131.526284      116.134378      460.222683    12     0     0     0     3   3.570 0.380E-30 0.761E-30 0.424E-06
       137.279739      191.789591     1037.541895    47     0     0     0     3   5.620 0.380-135 0.761-135 0.205E-09
        27.083587       16.609617      372.239203     9     0     0     0     4   3.240 0.380E-21 0.761E-21 0.385E-05
       159.053500       69.830128       31.437147     9     0     0     0     3   3.240 0.380E-21 0.761E-21 0.385E-05
       116.469202       70.550058      668.714295    10     0     0     0     5   3.360 0.380E-24 0.761E-24 0.166E-05
        62.570373      178.282352     2543.005876     1     0     0     0     2   1.560 0.380E+03 0.761E+03 0.000E+00
       122.580015      114.369950     1461.043154     1     0     0     0     5   1.560 0.380E+03 0.761E+03 0.000E+00
       111.190997      143.163250     1829.733089     1     0     0     0     7   1.560 0.380E+03 0.761E+03 0.000E+00
       163.899657       47.470992      252.619155     8     0     0     0     2   3.120 0.380E-18 0.761E-18 0.196E-02
       179.750033       71.423590      147.753978     7     0     0     0     8   2.980 0.380E-15 0.761E-15 0.239E-01
        29.454417        2.725115      960.274665    31     0     0     0     3   4.900 0.380E-87 0.761E-87 0.140E-08
        40.104129      152.146018      746.090082    21     0     0     0     2   4.300 0.380E-57 0.761E-57 0.113E-07
        91.102516       27.250869      230.658806     9     0     0     0     6   3.240 0.380E-21 0.761E-21 0.385E-05
       153.993862      105.987717      465.100181    17     0     0     0     1   4.010 0.380E-45 0.761E-45 0.405E-07
       178.981017      162.215417      439.465079     6     0     0     0     1   2.830 0.380E-12 0.761E-12 0.144E-02
        72.878291        7.945426      166.329290    11     0     0     0     2   3.470 0.380E-27 0.761E-27 0.804E-06
       190.684614      172.435448      609.646305    15     0     0     0     1   3.840 0.380E-39 0.761E-39 0.902E-07
        49.785137      158.215100     2121.637460     1     0     0     0     8   1.560 0.380E+03 0.761E+03 0.000E+00
       189.625262       48.658551       51.156701    14     0     0     0     8   3.760 0.380E-36 0.761E-36 0.144E-06
        47.815967       75.836501      316.915706     9     0     0     0     5   3.240 0.380E-21 0.761E-21 0.385E-05
       120.987692       93.228463      419.160634    12     0     0     0     7   3.570 0.380E-30 0.761E-30 0.424E-06
        69.915281       31.162092      407.321537    11     0     0     0     2   3.470 0.380E-27 0.761E-27 0.804E-06
       198.706249       28.854689      618.456514    26     0     0     0     5   4.620 0.380E-72 0.761E-72 0.346E-08
       124.121270       61.993981      212.204042    14     0     0     0     3   3.760 0.380E-36 0.761E-36 0.144E-06
        11.897631       96.102907      270.102150    14     0     0     0     7   3.760 0.380E-36 0.761E-36 0.144E-06
       197.746767      156.489513     1711.623655     1     0     0     0     5   1.560 0.380E+03 0.761E+03 0.000E+00
        28.192502        5.768091     1678.170826     1     0     0     0     3   1.560 0.380E+03 0.761E+03 0.000E+00
       167.800373      167.717694       27.241053    11     0     0     0     4   3.470 0.380E-27 0.761E-27 0.804E-06
       159.235099       22.529880     1596.656887     1     0     0     0     1   1.560 0.380E+03 0.761E+03 0.000E+00
       188.542163      156.385956      960.448718    24     0     0     0     6   4.500 0.380E-66 0.761E-66 0.533E-08
       132.133583       35.970244      458.465231    13     0     0     0     1   3.660 0.380E-33 0.761E-33 0.239E-06
       195.175145       78.858377       17.046681     9     0     0     0     3   3.240 0.380E-21 0.761E-21 0.385E-05
       164.969134       57.629101       91.534164    11     0     0     0     7   3.470 0.380E-27 0.761E-27 0.804E-06
       180.928504       22.893776      498.095555    14     0     0     0     1   3.760 0.380E-36 0.761E-36 0.144E-06
       168.245356      125.321838       79.504564     9     0     0     0     5   3.240 0.380E-21 0.761E-21 0.385E-05
       171.778902       42.118426      844.098461    12     0     0     0     1   3.570 0.380E-30 0.761E-30 0.424E-06
       140.199234        4.084596      237.410045    11     0     0     0     6   3.470 0.380E-27 0.761E-27 0.804E-06
        14.620965       42.030617       75.171912    17     0     0     0     4   4.010 0.380E-45 0.761E-45 0.405E-07
       119.343147       98.027318       54.225113     9     0     0     0     5   3.240 0.380E-21 0.761E-21 0.385E-05
         9.364800       29.992474      372.474306    13     0     0     0     7   3.660 0.380E-33 0.761E-33 0.239E-06
        58.833686      163.781636     1407.959291     1     0     0     0     5   1.560 0.380E+03 0.761E+03 0.000E+00
       182.536515      123.660241      154.057776    12     0     0     0     5   3.570 0.380E-30 0.761E-30 0.424E-06
        85.330429       52.827798      649.399830    23     0     0     0     3   4.430 0.380E-63 0.761E-63 0.673E-08
       116.105942        4.551717      458.572817     9     0     0     0     5   3.240 0.380E-21 0.761E-21 0.385E-05
       196.226946       41.943158     1233.242391     1     0     0     0     3   1.560 0.380E+03 0.761E+03 0.000E+00
       196.855819      130.746666      151.344618    13     0     0     0     3   3.660 0.380E-33 0.761E-33 0.239E-06
       113.365958      158.260836     1089.994360     1     0     0     0     1   1.560 0.380E+03 0.761E+03 0.000E+00
        62.596376      142.325975      174.362461    17     0     0     0     5   4.010 0.380E-45 0.761E-45 0.405E-07
        56.656369      154.011464      815.380394    13     0     0     0     7   3.660 0.380E-33 0.761E-33 0.239E-06
        95.486151       81.762349      370.799259    16     0     0     0     1   3.930 0.380E-42 0.761E-42 0.595E-07
        63.585400      127.145171      101.709727    11     0     0     0     2   3.470 0.380E-27 0.761E-27 0.804E-06
       154.326464       58.454915      530.595148    13     0     0     0     5   3.660 0.380E-33 0.761E-33 0.239E-06
        86.285633      164.519133      163.374767    14     0     0     0     3   3.760 0.380E-36 0.761E-36 0.144E-06
       140.277058      119.318535      725.001754    24     0     0     0     8   4.500 0.380E-66 0.761E-66 0.533E-08
        43.347867      174.956552      484.157785    23     0     0     0     7   4.430 0.380E-63 0.761E-63 0.673E-08
        82.806340      118.317114     2394.586714     1     0     0     0     8   1.560 0.380E+03 0.761E+03 0.000E+00
        63.514784        9.564383      426.956287     9     0     0     0     3   3.240 0.380E-21 0.761E-21 0.385E-05
       187.804135       88.098847      320.517775    12     0     0     0     7   3.570 0.380E-30 0.761E-30 0.424E-06
       190.514944      126.444343     1665.861664     1     0     0     0     3   1.560 0.380E+03 0.761E+03 0.000E+00
       198.175322      128.462898       39.728176     8     0     0     0     1   3.120 0.380E-18 0.761E-18 0.196E-02
        79.104039       17.538163      338.377627    14     0     0     0     2   3.760 0.380E-36 0.761E-36 0.144E-06
        76.507429      126.945405      222.564160    15     0     0     0     4   3.840 0.380E-39 0.761E-39 0.902E-07
       163.759382      194.260116      700.347634    26     0     0     0     6   4.620 0.380E-72 0.761E-72 0.346E-08
        91.555690      168.567916       66.232380    16     0     0     0     7   3.930 0.380E-42 0.761E-42 0.595E-07
        91.242323      103.185768      131.290292    10     0     0     0     6   3.360 0.380E-24 0.761E-24 0.166E-05
        69.357016       10.862433      204.576291    20     0     0     0     4   4.230 0.380E-54 0.761E-54 0.151E-07
        29.144327       51.612086      654.601244    14     0     0     0     8   3.760 0.380E-36 0.761E-36 0.144E-06
        36.360304       69.880422      158.509075    10     0     0     0     1   3.360 0.380E-24 0.761E-24 0.166E-05
       156.290046       89.501436       64.003936    10     0     0     0     8   3.360 0.380E-24 0.761E-24 0.166E-05
        14.297527      191.558534      818.868754    16     0     0     0     5   3.930 0.380E-42 0.761E-42 0.595E-07
        86.620927      153.975224      121.417730    11     0     0     0     6   3.470 0.380E-27 0.761E-27 0.804E-06
       181.520875       29.850086      287.197145    14     0     0     0     1   3.760 0.380E-36 0.761E-36 0.144E-06
       132.145149       38.579207       49.018579    16     0     0     0     5   3.930 0.380E-42 0.761E-42 0.595E-07
       146.496027       50.757826       95.220335     8     0     0     0     5   3.120 0.380E-18 0.761E-18 0.196E-02
       198.452540        6.519406      681.277720    24     0     0     0     2   4.500 0.380E-66 0.761E-66 0.533E-08
       153.394634      110.882309      235.431680     9     0     0     0     5   3.240 0.380E-21 0.761E-21 0.385E-05
       111.976885      112.806129     1151.741458     1     0     0     0     3   1.560 0.380E+03 0.761E+03 0.000E+00
        92.971200       21.426171     1569.016758     1     0     0     0     5   1.560 0.380E+03 0.761E+03 0.000E+00
        48.557530       42.375680     2173.523701     1     0     0     0     7   1.560 0.380E+03 0.761E+03 0.000E+00
       163.677882        1.316962      411.970771     8     0     0     0     8   3.120 0.380E-18 0.761E-18 0.196E-02
       188.162694      131.176633      288.254493    13     0     0     0     4   3.660 0.380E-33 0.761E-33 0.239E-06
        21.806716      157.590970     2511.322548     1     0     0     0     7   1.560 0.380E+03 0.761E+03 0.000E+00
        24.031469       58.631028      387.606556     9     0     0     0     1   3.240 0.380E-21 0.761E-21 0.385E-05
       120.751336       67.973369     1714.899337     1     0     0     0     5   1.560 0.380E+03 0.761E+03 0.000E+00
       104.256922      191.293224      419.995838    18     0     0     0     4   4.080 0.380E-48 0.761E-48 0.284E-07
       154.114390      184.525554       75.340852    13     0     0     0     1   3.660 0.380E-33 0.761E-33 0.239E-06
       134.691756       73.108936      514.584422    20     0     0     0     6   4.230 0.380E-54 0.761E-54 0.151E-07
       161.856563      155.676731      536.776224    23     0     0     0     1   4.430 0.380E-63 0.761E-63 0.673E-08
        51.053699       95.080533      590.963479    27     0     0     0     4   4.680 0.380E-75 0.761E-75 0.283E-08
        47.859336      189.101146     1440.719716     1     0     0     0     5   1.560 0.380E+03 0.761E+03 0.000E+00
         4.254788      135.226066      559.526675    19     0     0     0     8   4.160 0.380E-51 0.761E-51 0.204E-07
       198.013995      115.722236      265.876575    14     0     0     0     6   3.760 0.380E-36 0.761E-36 0.144E-06
        39.553546       58.691464      282.306919     9     0     0     0     4   3.240 0.380E-21 0.761E-21 0.385E-05
       121.556380      116.953297     2348.473286     1     0     0     0     1   1.560 0.380E+03 0.761E+03 0.000E+00
       194.869118       39.485084      213.927308     9     0     0     0     1   3.240 0.380E-21 0.761E-21 0.385E-05
        66.694939       91.046582      185.777667    10     0     0     0     7   3.360 0.380E-24 0.761E-24 0.166E-05
       118.561637       86.771368     1781.294382     1     0     0     0     4   1.560 0.380E+03 0.761E+03 0.000E+00
        18.077024       95.755857      327.978975    17     0     0     0     6   4.010 0.380E-45 0.761E-45 0.405E-07
        23.171388      155.084804       97.864350    17     0     0     0     6   4.010 0.380E-45 0.761E-45 0.405E-07
        20.166810      162.986807      558.626618    11     0     0     0     6   3.470 0.380E-27 0.761E-27 0.804E-06
        10.229538      109.794347      161.628399    12     0     0     0     3   3.570 0.380E-30 0.761E-30 0.424E-06
        85.048966       55.698511      337.603253    10     0     0     0     2   3.360 0.380E-24 0.761E-24 0.166E-05
       191.647004      106.957208       41.023411    14     0     0     0     1   3.760 0.380E-36 0.761E-36 0.144E-06
         5.545140       14.653202       22.317900    10     0     0     0     5   3.360 0.380E-24 0.761E-24 0.166E-05
        29.094753      135.561647      133.338506     7     0     0     0     8   2.980 0.380E-15 0.761E-15 0.239E-01
       174.930022      145.271792      574.500040     6     0     0     0     8   2.830 0.380E-12 0.761E-12 0.144E-02
        37.395648       99.975636      587.599734    12     0     0     0     6   3.570 0.380E-30 0.761E-30 0.424E-06
       192.681945       49.246727       64.439787    14     0     0     0     4   3.760 0.380E-36 0.761E-36 0.144E-06
        60.801738       74.491944     1352.594178     1     0     0     0     3   1.560 0.380E+03 0.761E+03 0.000E+00
       161.858857      157.536919      646.483439    26     0     0     0     1   4.620 0.380E-72 0.761E-72 0.346E-08
         6.634799       20.574716      319.401105    14     0     0     0     8   3.760 0.380E-36 0.761E-36 0.144E-06
        56.129533      122.381657      155.283408     9     0     0     0     3   3.240 0.380E-21 0.761E-21 0.385E-05
       178.642297      131.002360      373.665615    11     0     0     0     3   3.470 0.380E-27 0.761E-27 0.804E-06
        85.775693       80.531238      160.166091     9     0     0     0     1   3.240 0.380E-21 0.761E-21 0.385E-05
        60.288187      192.398045      293.248906     6     0     0     0     5   2.830 0.380E-12 0.761E-12 0.144E-02
       185.248997       49.818083      739.747065    20     0     0     0     6   4.230 0.380E-54 0.761E-54 0.151E-07
       182.339901      169.537541      304.966291    15     0     0     0     3   3.840 0.380E-39 0.761E-39 0.902E-07
        58.487605      198.702774      218.865639    11     0     0     0     5   3.470 0.380E-27 0.761E-27 0.804E-06
        97.339062       65.900539     1256.762256     1     0     0     0     7   1.560 0.380E+03 0.761E+03 0.000E+00
        52.189601       96.775709      434.766350    15     0     0     0     5   3.840 0.380E-39 0.761E-39 0.902E-07
        40.347118       72.843822     1725.611248     1     0     0     0     6   1.560 0.380E+03 0.761E+03 0.000E+00
       103.320290       45.503738      122.270463     8     0     0     0     8   3.120 0.380E-18 0.761E-18 0.196E-02
       107.280029       69.512174      796.301420    21     0     0     0     8   4.300 0.380E-57 0.761E-57 0.113E-07
        59.832135      196.933926      405.922872    17     0     0     0     2   4.010 0.380E-45 0.761E-45 0.405E-07
         7.379329      175.715167      457.081692    19     0     0     0     5   4.160 0.380E-51 0.761E-51 0.204E-07
        40.559360      150.092757     1383.948473     1     0     0     0     7   1.560 0.380E+03 0.761E+03 0.000E+00
         8.988632      108.286100      307.568735    10     0     0     0     3   3.360 0.380E-24 0.761E-24 0.166E-05
        74.143926      186.001710      224.603325    16     0     0     0     1   3.930 0.380E-42 0.761E-42 0.595E-07
       199.498014      176.036191      779.627938    12     0     0     0     4   3.570 0.380E-30 0.761E-30 0.424E-06
        36.282347      110.171515     1573.752087     1     0     0     0     8   1.560 0.380E+03 0.761E+03 0.000E+00
       184.491451      157.138314      320.519125    12     0     0     0     2   3.570 0.380E-30 0.761E-30 0.424E-06
       163.950828      146.370067      973.779996    46     0     0     0     6   5.580 0.380-132 0.761-132 0.225E-09
        44.510499       36.679824      216.992032     9     0     0     0     5   3.240 0.380E-21 0.761E-21 0.385E-05
       146.298695      119.547646       51.138252     7     0     0     0     1   2.980 0.380E-15 0.761E-15 0.239E-01
        33.472437      128.220832      806.600596    27     0     0     0     8   4.680 0.380E-75 0.761E-75 0.283E-08
        19.254229       79.038506      189.797689    18     0     0     0     6   4.080 0.380E-48 0.761E-48 0.284E-07
        37.367311      181.060718      811.704830    20     0     0     0     2   4.230 0.380E-54 0.761E-54 0.151E-07
        57.816118      167.279419     1615.718799     1     0     0     0     2   1.560 0.380E+03 0.761E+03 0.000E+00
        46.419925       25.743459      461.306305    10     0     0     0     5   3.360 0.380E-24 0.761E-24 0.166E-05
        57.235428       72.232583     1559.769262     1     0     0     0     8   1.560 0.380E+03 0.761E+03 0.000E+00
        84.213792      164.529367      768.448971    24     0     0     0     1   4.500 0.380E-66 0.761E-66 0.533E-08
       136.157686      115.145489      382.870616     6     0     0     0     5   2.830 0.380E-12 0.761E-12 0.144E-02
       157.066830       30.971370      286.115563    11     0     0     0     6   3.470 0.380E-27 0.761E-27 0.804E-06
       121.818578       42.282754      474.555443    11     0     0     0     5   3.470 0.380E-27 0.761E-27 0.804E-06
       156.144721       56.550525      237.821346    10     0     0     0     3   3.360 0.380E-24 0.761E-24 0.166E-05
        18.509437       85.128044     1074.859163     1     0     0     0     8   1.560 0.380E+03 0.761E+03 0.000E+00
        99.749110      169.042280      201.817924    13     0     0     0     2   3.660 0.380E-33 0.761E-33 0.239E-06
        81.740453       40.801116      619.303770    11     0     0     0     3   3.470 0.380E-27 0.761E-27 0.804E-06
       165.927880       83.647822      344.094978    16     0     0     0     8   3.930 0.380E-42 0.761E-42 0.595E-07
       117.314156       26.131784      435.918395    14     0     0     0     2   3.760 0.380E-36 0.761E-36 0.144E-06
        87.289589       64.997570      464.838703    14     0     0     0     2   3.760 0.380E-36 0.761E-36 0.144E-06
        84.970341       81.855445      289.343433    14     0     0     0     5   3.760 0.380E-36 0.761E-36 0.144E-06
        65.273638       47.718646       48.153904    12     0     0     0     7   3.570 0.380E-30 0.761E-30 0.424E-06
       154.522655       24.181213     1213.634459     1     0     0     0     6   1.560 0.380E+03 0.761E+03 0.000E+00
        47.354822       84.449048      158.471204     9     0     0     0     2   3.240 0.380E-21 0.761E-21 0.385E-05
       124.106070      177.467263      339.654389     7     0     0     0     4   2.980 0.380E-15 0.761E-15 0.239E-01
        59.942700       23.938973      303.833771    18     0     0     0     5   4.080 0.380E-48 0.761E-48 0.284E-07
       195.110683       14.307818        8.259737     5     0     0     0     3   2.660 0.380E-09 0.761E-09 0.416E-01
       145.183300       60.243641     1961.411882     1     0     0     0     8   1.560 0.380E+03 0.761E+03 0.000E+00
       199.163015      173.442876      465.234410    12     0     0     0     8   3.570 0.380E-30 0.761E-30 0.424E-06
       163.792780      186.111528     1745.637865     1     0     0     0     7   1.560 0.380E+03 0.761E+03 0.000E+00
       173.919202      110.405202      116.268054    12     0     0     0     8   3.570 0.380E-30 0.761E-30 0.424E-06
        92.986520       90.799107      911.761889    46     0     0     0     1   5.580 0.380-132 0.761-132 0.225E-09
        74.953408       16.705855      123.657347     8     0     0     0     4   3.120 0.380E-18 0.761E-18 0.196E-02
        99.879317       42.650675      552.217052    18     0     0     0     2   4.080 0.380E-48 0.761E-48 0.284E-07
       128.258991       66.599187     1034.226826     1     0     0     0     1   1.560 0.380E+03 0.761E+03 0.000E+00
        48.535916      136.371285      504.700148    19     0     0     0     1   4.160 0.380E-51 0.761E-51 0.204E-07
        75.256153      123.679056     1810.227593     1     0     0     0     6   1.560 0.380E+03 0.761E+03 0.000E+00
        90.777168       75.842761      535.626477    15     0     0     0     8   3.840 0.380E-39 0.761E-39 0.902E-07
       125.251883       48.286411      660.119129    27     0     0     0     3   4.680 0.380E-75 0.761E-75 0.283E-08
       191.103471      189.720491      442.072533    13     0     0     0     7   3.660 0.380E-33 0.761E-33 0.239E-06
        32.823934       23.032189      293.747106     7     0     0     0     4   2.980 0.380E-15 0.761E-15 0.239E-01
       116.093904       28.390559       28.726266     9     0     0     0     6   3.240 0.380E-21 0.761E-21 0.385E-05
       193.729080       76.270517      375.330694     8     0     0     0     1   3.120 0.380E-18 0.761E-18 0.196E-02
       120.531350       69.535966      495.664905     9     0     0     0     7   3.240 0.380E-21 0.761E-21 0.385E-05
       185.519586       83.619158       99.297485    12     0     0     0     4   3.570 0.380E-30 0.761E-30 0.424E-06
        50.462968      182.691284      871.456278    34     0     0     0     8   5.050 0.380E-96 0.761E-96 0.890E-09
       141.610153      123.552314     2354.232624     1     0     0     0     2   1.560 0.380E+03 0.761E+03 0.000E+00
       118.971310       49.108488      360.588579    12     0     0     0     3   3.570 0.380E-30 0.761E-30 0.424E-06
        85.279327      110.862333      536.933150    13     0     0     0     7   3.660 0.380E-33 0.761E-33 0.239E-06
        17.214158      161.105156      239.248219    10     0     0     0     7   3.360 0.380E-24 0.761E-24 0.166E-05
       144.497725       61.239522      321.732739    16     0     0     0     3   3.930 0.380E-42 0.761E-42 0.595E-07
         3.383076        8.990276       94.711516    24     0     0     0     4   4.500 0.380E-66 0.761E-66 0.533E-08
       154.857311       62.039347     1862.044671     1     0     0     0     8   1.560 0.380E+03 0.761E+03 0.000E+00
       115.544476       67.275066     1796.243189     1     0     0     0     4   1.560 0.380E+03 0.761E+03 0.000E+00
       106.579410      102.054590       59.121998     6     0     0     0     6   2.830 0.380E-12 0.761E-12 0.144E-02
       129.068781       45.942443      366.161557     8     0     0     0     4   3.120 0.380E-18 0.761E-18 0.196E-02
        30.999954      177.586223     2428.388142     1     0     0     0     1   1.560 0.380E+03 0.761E+03 0.000E+00
       101.224175      186.258487      221.090993    14     0     0     0     6   3.760 0.380E-36 0.761E-36 0.144E-06
       115.982246      192.469510      202.267744    16     0     0     0     1   3.930 0.380E-42 0.761E-42 0.595E-07
       155.472320      182.582328      629.701769    20     0     0     0     1   4.230 0.380E-54 0.761E-54 0.151E-07
        94.867854       38.770102       46.299938    14     0     0     0     8   3.760 0.380E-36 0.761E-36 0.144E-06
        80.422664      138.339351      756.990888    16     0     0     0     6   3.930 0.380E-42 0.761E-42 0.595E-07
        39.214112       34.420921      130.047918    18     0     0     0     8   4.080 0.380E-48 0.761E-48 0.284E-07
        99.904478       14.845673      103.563467    10     0     0     0     8   3.360 0.380E-24 0.761E-24 0.166E-05
        22.258180       97.809548      340.450692    13     0     0     0     4   3.660 0.380E-33 0.761E-33 0.239E-06
        66.303788       88.915157     1664.096323     1     0     0     0     8   1.560 0.380E+03 0.761E+03 0.000E+00
        32.192202      118.320390      682.922112    13     0     0     0     7   3.660 0.380E-33 0.761E-33 0.239E-06
       144.341793      127.742978      244.927566     9     0     0     0     5   3.240 0.380E-21 0.761E-21 0.385E-05
       180.363645       13.720386     2432.533723     1     0     0     0     1   1.560 0.380E+03 0.761E+03 0.000E+00
       126.635138       70.994907       58.804537    13     0     0     0     6   3.660 0.380E-33 0.761E-33 0.239E-06
       196.406185       81.005835      556.198413    15     0     0     0     3   3.840 0.380E-39 0.761E-39 0.902E-07
         1.069732       63.149864     1857.707286     1     0     0     0     3   1.560 0.380E+03 0.761E+03 0.000E+00
        25.375600      165.693079     1648.051817     1     0     0     0     8   1.560 0.380E+03 0.761E+03 0.000E+00
       128.391090      165.456888     1658.822537     1     0     0     0     8   1.560 0.380E+03 0.761E+03 0.000E+00
       168.950532       25.846781      425.365814    12     0     0     0     3   3.570 0.380E-30 0.761E-30 0.424E-06
       122.847730      134.822810       83.015571    11     0     0     0     6   3.470 0.380E-27 0.761E-27 0.804E-06
        74.565187      187.024369      576.744258    22     0     0     0     8   4.370 0.380E-60 0.761E-60 0.867E-08
       167.100723      177.618532      408.587793    12     0     0     0     8   3.570 0.380E-30 0.761E-30 0.424E-06
        72.660095      132.359960      253.137131     7     0     0     0     4   2.980 0.380E-15 0.761E-15 0.239E-01
        20.533618       83.983208       73.034931    10     0     0     0     1   3.360 0.380E-24 0.761E-24 0.166E-05
       149.523570       24.503941      234.071743    10     0     0     0     1   3.360 0.380E-24 0.761E-24 0.166E-05
        39.807883      131.272971       69.574621     7     0     0     0     5   2.980 0.380E-15 0.761E-15 0.239E-01