ITEM: TIMESTEP
0
ITEM: NUMBER OF ATOMS
         462
ITEM: BOX BOUNDS pp pp pp
  0.0000000E+00   200.000000000000     
  0.0000000E+00   200.000000000000     
  0.0000000E+00   5000.00000000000     
ITEM: ATOMS x y z f1 f2 f3 f4 orient radius rate_mig rate_rot rate_emit
        42.085409       15.425974      513.798196    13     0     0     0     6   3.660 0.130E-32 0.260E-32 0.291E-05
       156.833165       82.166430      500.425169    12     0     0     0     2   3.570 0.130E-29 0.260E-29 0.501E-05
        53.616265      184.953545     1367.246728     1     0     0     0     7   1.560 0.130E+04 0.260E+04 0.000E+00
         5.283744       14.817722       22.158688    11     0     0     0     3   3.470 0.130E-26 0.260E-26 0.916E-05
        87.302005      152.429467       92.463803    11     0     0     0     2   3.470 0.130E-26 0.260E-26 0.916E-05
        57.483120       95.859722       70.969911    10     0     0     0     8   3.360 0.130E-23 0.260E-23 0.181E-04
        24.010178       12.065779       94.375933    16     0     0     0     7   3.930 0.130E-41 0.260E-41 0.788E-06
       179.387952       71.241675      148.568224     6     0     0     0     5   2.830 0.130E-11 0.260E-11 0.107E-01
        79.880707      149.743571      424.642667    12     0     0     0     7   3.570 0.130E-29 0.260E-29 0.501E-05
       158.802965       75.953545      106.794810    12     0     0     0     4   3.570 0.130E-29 0.260E-29 0.501E-05
       115.453950       25.370100     2658.309288     1     0     0     0     7   1.560 0.130E+04 0.260E+04 0.000E+00
        72.932093      131.815964      253.045299     6     0     0     0     6   2.830 0.130E-11 0.260E-11 0.107E-01
       129.655182       26.490380      103.759805    10     0     0     0     3   3.360 0.130E-23 0.260E-23 0.181E-04
       138.248213       95.792369      529.222476    14     0     0     0     2   3.760 0.130E-35 0.260E-35 0.181E-05
        17.008968      134.372570     2187.816530     1     0     0     0     4   1.560 0.130E+04 0.260E+04 0.000E+00
        60.370027      116.556543     2170.405543     1     0     0     0     4   1.560 0.130E+04 0.260E+04 0.000E+00
       120.053956       52.522876      703.534843    22     0     0     0     2   4.370 0.130E-59 0.260E-59 0.128E-06
        79.016203        3.171207      685.268528    21     0     0     0     7   4.300 0.130E-56 0.260E-56 0.164E-06
        94.656289      139.871803      191.245201    24     0     0     0     3   4.500 0.130E-65 0.260E-65 0.811E-07
       133.106830      128.304126      873.732651    19     0     0     0     5   4.160 0.130E-50 0.260E-50 0.288E-06
        82.658531      117.489808      437.260206    13     0     0     0     2   3.660 0.130E-32 0.260E-32 0.291E-05
        71.636003       65.352601      431.119106    18     0     0     0     1   4.080 0.130E-47 0.260E-47 0.392E-06
        33.229912      114.915526      166.901534    14     0     0     0     5   3.760 0.130E-35 0.260E-35 0.181E-05
        53.686581       88.143623      695.932070    19     0     0     0     1   4.160 0.130E-50 0.260E-50 0.288E-06
        84.969792       81.641015      289.075696    15     0     0     0     1   3.840 0.130E-38 0.260E-38 0.117E-05
        78.717341      186.374684      270.333512    10     0     0     0     3   3.360 0.130E-23 0.260E-23 0.181E-04
        65.125533      172.455981      348.040259    17     0     0     0     7   4.010 0.130E-44 0.260E-44 0.547E-06
       107.792539       50.178326      514.988442     9     0     0     0     1   3.240 0.130E-20 0.260E-20 0.401E-04
       100.662740      189.760547     1751.999020     1     0     0     0     7   1.560 0.130E+04 0.260E+04 0.000E+00
       133.901392      104.550800      300.260916     9     0     0     0     6   3.240 0.130E-20 0.260E-20 0.401E-04
        84.381127      193.194324      395.657210    13     0     0     0     4   3.660 0.130E-32 0.260E-32 0.291E-05
       156.542273      150.372366      189.882206     9     0     0     0     5   3.240 0.130E-20 0.260E-20 0.401E-04
        84.249420       51.644100      299.627423     8     0     0     0     6   3.120 0.130E-17 0.260E-17 0.145E-01
       105.636755       96.246122       77.162972    12     0     0     0     1   3.570 0.130E-29 0.260E-29 0.501E-05
       111.383552       52.120566     1411.595111     1     0     0     0     4   1.560 0.130E+04 0.260E+04 0.000E+00
       163.811121       40.794576      360.037234    10     0     0     0     8   3.360 0.130E-23 0.260E-23 0.181E-04
       198.239142      115.858615      266.061114    15     0     0     0     5   3.840 0.130E-38 0.260E-38 0.117E-05
       101.277124      186.501410      221.221703    15     0     0     0     2   3.840 0.130E-38 0.260E-38 0.117E-05
       131.526284      116.134378      460.222683    12     0     0     0     3   3.570 0.130E-29 0.260E-29 0.501E-05
        66.627245      109.850850      239.981968     6     0     0     0     6   2.830 0.130E-11 0.260E-11 0.107E-01
        27.083587       16.609617      372.239203     9     0     0     0     4   3.240 0.130E-20 0.260E-20 0.401E-04
       159.053500       69.830128       31.437147     9     0     0     0     3   3.240 0.130E-20 0.260E-20 0.401E-04
       116.469202       70.550058      668.714295    10     0     0     0     5   3.360 0.130E-23 0.260E-23 0.181E-04
       122.568530       38.500133      783.872988    25     0     0     0     5   4.560 0.130E-68 0.260E-68 0.656E-07
       165.045863       57.834097       91.673459    12     0     0     0     2   3.570 0.130E-29 0.260E-29 0.501E-05
       116.734694       19.638623     1403.965747     1     0     0     0     1   1.560 0.130E+04 0.260E+04 0.000E+00
        79.332676       17.619628      338.120968    15     0     0     0     7   3.840 0.130E-38 0.260E-38 0.117E-05
        90.807696       38.004309     3078.812026     1     0     0     0     4   1.560 0.130E+04 0.260E+04 0.000E+00
        11.478274      139.678785     2439.790338     1     0     0     0     5   1.560 0.130E+04 0.260E+04 0.000E+00
        40.104129      152.146018      746.090082    21     0     0     0     2   4.300 0.130E-56 0.260E-56 0.164E-06
        91.102516       27.250869      230.658806     9     0     0     0     6   3.240 0.130E-20 0.260E-20 0.401E-04
       153.993862      105.987717      465.100181    17     0     0     0     1   4.010 0.130E-44 0.260E-44 0.547E-06
       178.981017      162.215417      439.465079     6     0     0     0     1   2.830 0.130E-11 0.260E-11 0.107E-01
        72.976472      108.014415     2563.111391     1     0     0     0     7   1.560 0.130E+04 0.260E+04 0.000E+00
       190.684614      172.435448      609.646305    15     0     0     0     1   3.840 0.130E-38 0.260E-38 0.117E-05
        16.558216      126.837895     1889.857489     1     0     0     0     6   1.560 0.130E+04 0.260E+04 0.000E+00
       189.625262       48.658551       51.156701    14     0     0     0     8   3.760 0.130E-35 0.260E-35 0.181E-05
        47.815967       75.836501      316.915706     9     0     0     0     5   3.240 0.130E-20 0.260E-20 0.401E-04
       120.987692       93.228463      419.160634    12     0     0     0     7   3.570 0.130E-29 0.260E-29 0.501E-05
        69.915281       31.162092      407.321537    11     0     0     0     2   3.470 0.130E-26 0.260E-26 0.916E-05
       198.706249       28.854689      618.456514    26     0     0     0     5   4.620 0.130E-71 0.260E-71 0.540E-07
       124.121270       61.993981      212.204042    14     0     0     0     3   3.760 0.130E-35 0.260E-35 0.181E-05
        11.897631       96.102907      270.102150    14     0     0     0     7   3.760 0.130E-35 0.260E-35 0.181E-05
       121.235379       77.071940      395.284113    16     0     0     0     7   3.930 0.130E-41 0.260E-41 0.788E-06
       114.761103      101.063241       80.083514     9     0     0     0     7   3.240 0.130E-20 0.260E-20 0.401E-04
       167.800373      167.717694       27.241053    11     0     0     0     4   3.470 0.130E-26 0.260E-26 0.916E-05
       195.704260       36.537174      130.007787     9     0     0     0     4   3.240 0.130E-20 0.260E-20 0.401E-04
        71.165818       28.343271     1848.337971     1     0     0     0     3   1.560 0.130E+04 0.260E+04 0.000E+00
       132.133583       35.970244      458.465231    13     0     0     0     1   3.660 0.130E-32 0.260E-32 0.291E-05
       195.175145       78.858377       17.046681     9     0     0     0     3   3.240 0.130E-20 0.260E-20 0.401E-04
       163.268713       97.526871       98.992024     7     0     0     0     5   2.980 0.130E-14 0.260E-14 0.153E+00
       180.928504       22.893776      498.095555    14     0     0     0     1   3.760 0.130E-35 0.260E-35 0.181E-05
       168.245356      125.321838       79.504564     9     0     0     0     5   3.240 0.130E-20 0.260E-20 0.401E-04
       171.778902       42.118426      844.098461    12     0     0     0     1   3.570 0.130E-29 0.260E-29 0.501E-05
       140.199234        4.084596      237.410045    11     0     0     0     6   3.470 0.130E-26 0.260E-26 0.916E-05
        14.620965       42.030617       75.171912    17     0     0     0     4   4.010 0.130E-44 0.260E-44 0.547E-06
       119.343147       98.027318       54.225113     9     0     0     0     5   3.240 0.130E-20 0.260E-20 0.401E-04
         9.364800       29.992474      372.474306    13     0     0     0     7   3.660 0.130E-32 0.260E-32 0.291E-05
       126.138569       54.533245      341.234920    10     0     0     0     1   3.360 0.130E-23 0.260E-23 0.181E-04
       182.536515      123.660241      154.057776    12     0     0     0     5   3.570 0.130E-29 0.260E-29 0.501E-05
        85.330429       52.827798      649.399830    23     0     0     0     3   4.430 0.130E-62 0.260E-62 0.101E-06
       116.105942        4.551717      458.572817     9     0     0     0     5   3.240 0.130E-20 0.260E-20 0.401E-04
        43.251993      150.844385     2390.286733     1     0     0     0     1   1.560 0.130E+04 0.260E+04 0.000E+00
       196.855819      130.746666      151.344618    13     0     0     0     3   3.660 0.130E-32 0.260E-32 0.291E-05
       181.805046       85.495823      774.041822    26     0     0     0     4   4.620 0.130E-71 0.260E-71 0.540E-07
        62.596376      142.325975      174.362461    17     0     0     0     5   4.010 0.130E-44 0.260E-44 0.547E-06
        56.656369      154.011464      815.380394    13     0     0     0     7   3.660 0.130E-32 0.260E-32 0.291E-05
        95.486151       81.762349      370.799259    16     0     0     0     1   3.930 0.130E-41 0.260E-41 0.788E-06
        30.474141      171.671962     1115.431614     1     0     0     0     5   1.560 0.130E+04 0.260E+04 0.000E+00
       154.326464       58.454915      530.595148    13     0     0     0     5   3.660 0.130E-32 0.260E-32 0.291E-05
        86.285633      164.519133      163.374767    14     0     0     0     3   3.760 0.130E-35 0.260E-35 0.181E-05
       140.277058      119.318535      725.001754    24     0     0     0     8   4.500 0.130E-65 0.260E-65 0.811E-07
        43.347867      174.956552      484.157785    23     0     0     0     7   4.430 0.130E-62 0.260E-62 0.101E-06
        93.949806      183.722372      983.859146     1     0     0     0     5   1.560 0.130E+04 0.260E+04 0.000E+00
        63.514784        9.564383      426.956287     9     0     0     0     3   3.240 0.130E-20 0.260E-20 0.401E-04
       187.804135       88.098847      320.517775    12     0     0     0     7   3.570 0.130E-29 0.260E-29 0.501E-05
       101.054905       65.117864      361.370915     9     0     0     0     5   3.240 0.130E-20 0.260E-20 0.401E-04
       198.175322      128.462898       39.728176     8     0     0     0     1   3.120 0.130E-17 0.260E-17 0.145E-01
       148.646724       11.381769      118.995798    10     0     0     0     6   3.360 0.130E-23 0.260E-23 0.181E-04
       195.500423      152.538540     1603.726399     1     0     0     0     3   1.560 0.130E+04 0.260E+04 0.000E+00
       163.759382      194.260116      700.347634    26     0     0     0     6   4.620 0.130E-71 0.260E-71 0.540E-07
        91.555690      168.567916       66.232380    16     0     0     0     7   3.930 0.130E-41 0.260E-41 0.788E-06
        91.242323      103.185768      131.290292    10     0     0     0     6   3.360 0.130E-23 0.260E-23 0.181E-04
        69.357016       10.862433      204.576291    20     0     0     0     4   4.230 0.130E-53 0.260E-53 0.216E-06
        29.144327       51.612086      654.601244    14     0     0     0     8   3.760 0.130E-35 0.260E-35 0.181E-05
        36.360304       69.880422      158.509075    10     0     0     0     1   3.360 0.130E-23 0.260E-23 0.181E-04
       156.290046       89.501436       64.003936    10     0     0     0     8   3.360 0.130E-23 0.260E-23 0.181E-04
        14.297527      191.558534      818.868754    16     0     0     0     5   3.930 0.130E-41 0.260E-41 0.788E-06
        86.620927      153.975224      121.417730    11     0     0     0     6   3.470 0.130E-26 0.260E-26 0.916E-05
       181.515310       30.189990      287.261399    15     0     0     0     3   3.840 0.130E-38 0.260E-38 0.117E-05
       132.145149       38.579207       49.018579    16     0     0     0     5   3.930 0.130E-41 0.260E-41 0.788E-06
        44.505162       82.595695      853.485457    20     0     0     0     5   4.230 0.130E-53 0.260E-53 0.216E-06
       198.452540        6.519406      681.277720    24     0     0     0     2   4.500 0.130E-65 0.260E-65 0.811E-07
       153.394634      110.882309      235.431680     9     0     0     0     5   3.240 0.130E-20 0.260E-20 0.401E-04
        98.061691      142.047210       23.025201     6     0     0     0     3   2.830 0.130E-11 0.260E-11 0.107E-01
       188.535888      156.499715      960.300409    25     0     0     0     7   4.560 0.130E-68 0.260E-68 0.656E-07
       150.530105       48.220220     2901.376769     1     0     0     0     7   1.560 0.130E+04 0.260E+04 0.000E+00
       112.123705      190.567275      341.085039     9     0     0     0     5   3.240 0.130E-20 0.260E-20 0.401E-04
       188.162694      131.176633      288.254493    13     0     0     0     4   3.660 0.130E-32 0.260E-32 0.291E-05
       134.770674       31.589511      209.956311    14     0     0     0     3   3.760 0.130E-35 0.260E-35 0.181E-05
        24.031469       58.631028      387.606556     9     0     0     0     1   3.240 0.130E-20 0.260E-20 0.401E-04
        98.398699       70.039884     1789.116783     1     0     0     0     7   1.560 0.130E+04 0.260E+04 0.000E+00
       104.256922      191.293224      419.995838    18     0     0     0     4   4.080 0.130E-47 0.260E-47 0.392E-06
       154.114390      184.525554       75.340852    13     0     0     0     1   3.660 0.130E-32 0.260E-32 0.291E-05
       134.691756       73.108936      514.584422    20     0     0     0     6   4.230 0.130E-53 0.260E-53 0.216E-06
       161.856563      155.676731      536.776224    23     0     0     0     1   4.430 0.130E-62 0.260E-62 0.101E-06
        51.053699       95.080533      590.963479    27     0     0     0     4   4.680 0.130E-74 0.260E-74 0.447E-07
        31.850915       68.782814     1497.023172     1     0     0     0     3   1.560 0.130E+04 0.260E+04 0.000E+00
         4.254788      135.226066      559.526675    19     0     0     0     8   4.160 0.130E-50 0.260E-50 0.288E-06
       112.251696      113.828115     2014.591375     1     0     0     0     6   1.560 0.130E+04 0.260E+04 0.000E+00
        39.553546       58.691464      282.306919     9     0     0     0     4   3.240 0.130E-20 0.260E-20 0.401E-04
       194.953378       31.553957      120.838931    11     0     0     0     4   3.470 0.130E-26 0.260E-26 0.916E-05
       185.053284       33.332399      162.643204     6     0     0     0     7   2.830 0.130E-11 0.260E-11 0.107E-01
        66.694939       91.046582      185.777667    10     0     0     0     7   3.360 0.130E-23 0.260E-23 0.181E-04
        76.550435      126.419943      222.694085    18     0     0     0     6   4.080 0.130E-47 0.260E-47 0.392E-06
        18.077024       95.755857      327.978975    17     0     0     0     6   4.010 0.130E-44 0.260E-44 0.547E-06
       178.077252      159.759535       40.679889     6     0     0     0     5   2.830 0.130E-11 0.260E-11 0.107E-01
        20.166810      162.986807      558.626618    11     0     0     0     6   3.470 0.130E-26 0.260E-26 0.916E-05
        10.229538      109.794347      161.628399    12     0     0     0     3   3.570 0.130E-29 0.260E-29 0.501E-05
        85.048966       55.698511      337.603253    10     0     0     0     2   3.360 0.130E-23 0.260E-23 0.181E-04
       191.647004      106.957208       41.023411    14     0     0     0     1   3.760 0.130E-35 0.260E-35 0.181E-05
       115.962957      192.252901      202.327344    17     0     0     0     4   4.010 0.130E-44 0.260E-44 0.547E-06
       151.617770       38.786389      917.752138    34     0     0     0     8   5.050 0.130E-95 0.260E-95 0.150E-07
       174.930022      145.271792      574.500040     6     0     0     0     8   2.830 0.130E-11 0.260E-11 0.107E-01
        37.395648       99.975636      587.599734    12     0     0     0     6   3.570 0.130E-29 0.260E-29 0.501E-05
       192.681945       49.246727       64.439787    14     0     0     0     4   3.760 0.130E-35 0.260E-35 0.181E-05
        98.397389      180.574908      491.148852    18     0     0     0     7   4.080 0.130E-47 0.260E-47 0.392E-06
       161.858857      157.536919      646.483439    26     0     0     0     1   4.620 0.130E-71 0.260E-71 0.540E-07
         6.634799       20.574716      319.401105    14     0     0     0     8   3.760 0.130E-35 0.260E-35 0.181E-05
        56.129533      122.381657      155.283408     9     0     0     0     3   3.240 0.130E-20 0.260E-20 0.401E-04
       178.642297      131.002360      373.665615    11     0     0     0     3   3.470 0.130E-26 0.260E-26 0.916E-05
        85.775693       80.531238      160.166091     9     0     0     0     1   3.240 0.130E-20 0.260E-20 0.401E-04
        83.933834      108.762669     1217.365305     1     0     0     0     7   1.560 0.130E+04 0.260E+04 0.000E+00
       185.248997       49.818083      739.747065    20     0     0     0     6   4.230 0.130E-53 0.260E-53 0.216E-06
       182.339901      169.537541      304.966291    15     0     0     0     3   3.840 0.130E-38 0.260E-38 0.117E-05
        58.487605      198.702774      218.865639    11     0     0     0     5   3.470 0.130E-26 0.260E-26 0.916E-05
        93.024411      139.894656      625.214478    18     0     0     0     6   4.080 0.130E-47 0.260E-47 0.392E-06
        52.189601       96.775709      434.766350    15     0     0     0     5   3.840 0.130E-38 0.260E-38 0.117E-05
       104.008984      159.567551     2419.584744     1     0     0     0     1   1.560 0.130E+04 0.260E+04 0.000E+00
       103.320290       45.503738      122.270463     8     0     0     0     8   3.120 0.130E-17 0.260E-17 0.145E-01
       107.280029       69.512174      796.301420    21     0     0     0     8   4.300 0.130E-56 0.260E-56 0.164E-06
        59.832135      196.933926      405.922872    17     0     0     0     2   4.010 0.130E-44 0.260E-44 0.547E-06
         7.379329      175.715167      457.081692    19     0     0     0     5   4.160 0.130E-50 0.260E-50 0.288E-06
        44.378969       36.664971      217.214986    10     0     0     0     5   3.360 0.130E-23 0.260E-23 0.181E-04
         8.988632      108.286100      307.568735    10     0     0     0     3   3.360 0.130E-23 0.260E-23 0.181E-04
        74.143926      186.001710      224.603325    16     0     0     0     1   3.930 0.130E-41 0.260E-41 0.788E-06
       199.498014      176.036191      779.627938    12     0     0     0     4   3.570 0.130E-29 0.260E-29 0.501E-05
         9.968392      150.849465      389.379456    15     0     0     0     6   3.840 0.130E-38 0.260E-38 0.117E-05
       184.491451      157.138314      320.519125    12     0     0     0     2   3.570 0.130E-29 0.260E-29 0.501E-05
       140.998689       86.963348      101.502835     6     0     0     0     5   2.830 0.130E-11 0.260E-11 0.107E-01
       167.460161       11.345684     2618.963676     1     0     0     0     4   1.560 0.130E+04 0.260E+04 0.000E+00
        35.889823      161.990277     1975.812800     1     0     0     0     8   1.560 0.130E+04 0.260E+04 0.000E+00
        33.472437      128.220832      806.600596    27     0     0     0     8   4.680 0.130E-74 0.260E-74 0.447E-07
        19.254229       79.038506      189.797689    18     0     0     0     6   4.080 0.130E-47 0.260E-47 0.392E-06
        37.367311      181.060718      811.704830    20     0     0     0     2   4.230 0.130E-53 0.260E-53 0.216E-06
        72.706199        8.175810      166.094339    12     0     0     0     1   3.570 0.130E-29 0.260E-29 0.501E-05
        46.419925       25.743459      461.306305    10     0     0     0     5   3.360 0.130E-23 0.260E-23 0.181E-04
       197.204266       37.593889      237.783320     8     0     0     0     8   3.120 0.130E-17 0.260E-17 0.145E-01
        84.213792      164.529367      768.448971    24     0     0     0     1   4.500 0.130E-65 0.260E-65 0.811E-07
       136.157686      115.145489      382.870616     6     0     0     0     5   2.830 0.130E-11 0.260E-11 0.107E-01
       157.066830       30.971370      286.115563    11     0     0     0     6   3.470 0.130E-26 0.260E-26 0.916E-05
       121.818578       42.282754      474.555443    11     0     0     0     5   3.470 0.130E-26 0.260E-26 0.916E-05
       156.144721       56.550525      237.821346    10     0     0     0     3   3.360 0.130E-23 0.260E-23 0.181E-04
       181.143954       14.871263     1455.319512     1     0     0     0     5   1.560 0.130E+04 0.260E+04 0.000E+00
        99.749110      169.042280      201.817924    13     0     0     0     2   3.660 0.130E-32 0.260E-32 0.291E-05
        81.740453       40.801116      619.303770    11     0     0     0     3   3.470 0.130E-26 0.260E-26 0.916E-05
       165.927880       83.647822      344.094978    16     0     0     0     8   3.930 0.130E-41 0.260E-41 0.788E-06
       117.314156       26.131784      435.918395    14     0     0     0     2   3.760 0.130E-35 0.260E-35 0.181E-05
        87.289589       64.997570      464.838703    14     0     0     0     2   3.760 0.130E-35 0.260E-35 0.181E-05
       174.225290      177.617153     1919.750375     1     0     0     0     3   1.560 0.130E+04 0.260E+04 0.000E+00
        65.273638       47.718646       48.153904    12     0     0     0     7   3.570 0.130E-29 0.260E-29 0.501E-05
       181.322602      109.301093     1683.216860     1     0     0     0     6   1.560 0.130E+04 0.260E+04 0.000E+00
        47.354822       84.449048      158.471204     9     0     0     0     2   3.240 0.130E-20 0.260E-20 0.401E-04
        70.354269       42.884205     2061.918197     1     0     0     0     2   1.560 0.130E+04 0.260E+04 0.000E+00
        34.337140       31.030332     1675.603663     1     0     0     0     2   1.560 0.130E+04 0.260E+04 0.000E+00
        39.665576      131.130664       69.432314     6     0     0     0     1   2.830 0.130E-11 0.260E-11 0.107E-01
        53.822242      176.670398     2265.273830     1     0     0     0     4   1.560 0.130E+04 0.260E+04 0.000E+00
       199.163015      173.442876      465.234410    12     0     0     0     8   3.570 0.130E-29 0.260E-29 0.501E-05
        20.407679       15.201958      267.020132    11     0     0     0     7   3.470 0.130E-26 0.260E-26 0.916E-05
       173.919202      110.405202      116.268054    12     0     0     0     8   3.570 0.130E-29 0.260E-29 0.501E-05
        92.986520       90.799107      911.761889    46     0     0     0     1   5.580 0.130-131 0.260-131 0.413E-08
        74.953408       16.705855      123.657347     8     0     0     0     4   3.120 0.130E-17 0.260E-17 0.145E-01
        99.879317       42.650675      552.217052    18     0     0     0     2   4.080 0.130E-47 0.260E-47 0.392E-06
       176.021825      198.352576      113.918569    14     0     0     0     6   3.760 0.130E-35 0.260E-35 0.181E-05
        48.535916      136.371285      504.700148    19     0     0     0     1   4.160 0.130E-50 0.260E-50 0.288E-06
        53.313590      166.610881      341.734230     6     0     0     0     5   2.830 0.130E-11 0.260E-11 0.107E-01
        90.777168       75.842761      535.626477    15     0     0     0     8   3.840 0.130E-38 0.260E-38 0.117E-05
       125.251883       48.286411      660.119129    27     0     0     0     3   4.680 0.130E-74 0.260E-74 0.447E-07
       191.103471      189.720491      442.072533    13     0     0     0     7   3.660 0.130E-32 0.260E-32 0.291E-05
       101.630774      133.600193      274.102567    11     0     0     0     7   3.470 0.130E-26 0.260E-26 0.916E-05
       116.093904       28.390559       28.726266     9     0     0     0     6   3.240 0.130E-20 0.260E-20 0.401E-04
       193.729080       76.270517      375.330694     8     0     0     0     1   3.120 0.130E-17 0.260E-17 0.145E-01
       120.531350       69.535966      495.664905     9     0     0     0     7   3.240 0.130E-20 0.260E-20 0.401E-04
       185.519586       83.619158       99.297485    12     0     0     0     4   3.570 0.130E-29 0.260E-29 0.501E-05
         2.606075      199.742194      180.672417     7     0     0     0     4   2.980 0.130E-14 0.260E-14 0.153E+00
        75.320751      142.963233     2025.737734     1     0     0     0     2   1.560 0.130E+04 0.260E+04 0.000E+00
       129.792943       46.666605      366.161557     6     0     0     0     7   2.830 0.130E-11 0.260E-11 0.107E-01
        85.279327      110.862333      536.933150    13     0     0     0     7   3.660 0.130E-32 0.260E-32 0.291E-05
        17.214158      161.105156      239.248219    10     0     0     0     7   3.360 0.130E-23 0.260E-23 0.181E-04
       144.497725       61.239522      321.732739    16     0     0     0     3   3.930 0.130E-41 0.260E-41 0.788E-06
         3.383076        8.990276       94.711516    24     0     0     0     4   4.500 0.130E-65 0.260E-65 0.811E-07
       186.506977       27.125986      560.284272    23     0     0     0     6   4.430 0.130E-62 0.260E-62 0.101E-06
        33.912434      189.938269      289.534257     7     0     0     0     2   2.980 0.130E-14 0.260E-14 0.153E+00
       106.579410      102.054590       59.121998     6     0     0     0     6   2.830 0.130E-11 0.260E-11 0.107E-01
       177.598676       23.721280       26.482010    15     0     0     0     1   3.840 0.130E-38 0.260E-38 0.117E-05
       163.899657       47.470992      252.619155     7     0     0     0     2   2.980 0.130E-14 0.260E-14 0.153E+00
       137.565128      191.722656     1037.716465    53     0     0     0     8   5.850 0.130-152 0.260-152 0.236E-08
       147.088393      181.032321      270.683916    11     0     0     0     7   3.470 0.130E-26 0.260E-26 0.916E-05
       155.472320      182.582328      629.701769    20     0     0     0     1   4.230 0.130E-53 0.260E-53 0.216E-06
        94.867854       38.770102       46.299938    14     0     0     0     8   3.760 0.130E-35 0.260E-35 0.181E-05
        80.422664      138.339351      756.990888    16     0     0     0     6   3.930 0.130E-41 0.260E-41 0.788E-06
       167.877898       14.643499      255.552836     6     0     0     0     7   2.830 0.130E-11 0.260E-11 0.107E-01
        99.904478       14.845673      103.563467    10     0     0     0     8   3.360 0.130E-23 0.260E-23 0.181E-04
        22.258180       97.809548      340.450692    13     0     0     0     4   3.660 0.130E-32 0.260E-32 0.291E-05
       194.850834       39.629498      213.897658    11     0     0     0     6   3.470 0.130E-26 0.260E-26 0.916E-05
        32.192202      118.320390      682.922112    13     0     0     0     7   3.660 0.130E-32 0.260E-32 0.291E-05
       144.341793      127.742978      244.927566     9     0     0     0     5   3.240 0.130E-20 0.260E-20 0.401E-04
        52.552064      123.079349     2219.283228     1     0     0     0     6   1.560 0.130E+04 0.260E+04 0.000E+00
       126.635138       70.994907       58.804537    13     0     0     0     6   3.660 0.130E-32 0.260E-32 0.291E-05
       196.406185       81.005835      556.198413    15     0     0     0     3   3.840 0.130E-38 0.260E-38 0.117E-05
       188.205226       74.507964      175.217752    18     0     0     0     8   4.080 0.130E-47 0.260E-47 0.392E-06
        37.286316      199.610413     1566.803058     1     0     0     0     7   1.560 0.130E+04 0.260E+04 0.000E+00
       148.202653      198.443104       84.509234    12     0     0     0     6   3.570 0.130E-29 0.260E-29 0.501E-05
       168.950532       25.846781      425.365814    12     0     0     0     3   3.570 0.130E-29 0.260E-29 0.501E-05
       122.847730      134.822810       83.015571    11     0     0     0     6   3.470 0.130E-26 0.260E-26 0.916E-05
        74.565187      187.024369      576.744258    22     0     0     0     8   4.370 0.130E-59 0.260E-59 0.128E-06
       167.100723      177.618532      408.587793    12     0     0     0     8   3.570 0.130E-29 0.260E-29 0.501E-05
        79.617330      167.420827       32.213638     7     0     0     0     3   2.980 0.130E-14 0.260E-14 0.153E+00
        20.533618       83.983208       73.034931    10     0     0     0     1   3.360 0.130E-23 0.260E-23 0.181E-04
       149.523570       24.503941      234.071743    10     0     0     0     1   3.360 0.130E-23 0.260E-23 0.181E-04
        29.456834      136.195726      134.424749     7     0     0     0     2   2.980 0.130E-14 0.260E-14 0.153E+00