ITEM: TIMESTEP
0
ITEM: NUMBER OF ATOMS
         444
ITEM: BOX BOUNDS pp pp pp
  0.0000000E+00   200.000000000000     
  0.0000000E+00   200.000000000000     
  0.0000000E+00   5000.00000000000     
ITEM: ATOMS x y z f1 f2 f3 f4 orient radius rate_mig rate_rot rate_emit
        42.085409       15.425974      513.798196    13     0     0     0     6   3.660 0.205E-32 0.411E-32 0.735E-05
       156.833165       82.166430      500.425169    12     0     0     0     2   3.570 0.205E-29 0.411E-29 0.125E-04
       137.796250       42.286976      116.475464    10     0     0     0     7   3.360 0.205E-23 0.411E-23 0.438E-04
         5.283744       14.817722       22.158688    11     0     0     0     3   3.470 0.205E-26 0.411E-26 0.225E-04
        87.302005      152.429467       92.463803    11     0     0     0     2   3.470 0.205E-26 0.411E-26 0.225E-04
        57.483120       95.859722       70.969911    10     0     0     0     8   3.360 0.205E-23 0.411E-23 0.438E-04
         3.666750        8.818418       94.597439    26     0     0     0     7   4.620 0.205E-71 0.411E-71 0.149E-06
       163.182954      118.300148     2252.184514     1     0     0     0     1   1.560 0.205E+04 0.411E+04 0.000E+00
        79.880707      149.743571      424.642667    12     0     0     0     7   3.570 0.205E-29 0.411E-29 0.125E-04
       162.906631       97.436788       99.354106     6     0     0     0     5   2.830 0.205E-11 0.411E-11 0.226E-01
       129.305693       67.708190     3326.155863     1     0     0     0     5   1.560 0.205E+04 0.411E+04 0.000E+00
        72.932093      131.815964      253.045299     6     0     0     0     6   2.830 0.205E-11 0.411E-11 0.226E-01
       129.655182       26.490380      103.759805    10     0     0     0     3   3.360 0.205E-23 0.411E-23 0.438E-04
       138.248213       95.792369      529.222476    14     0     0     0     2   3.760 0.205E-35 0.411E-35 0.461E-05
        59.985995      135.596679       32.313242     6     0     0     0     1   2.830 0.205E-11 0.411E-11 0.226E-01
       151.642140      137.794290      276.918627     6     0     0     0     3   2.830 0.205E-11 0.411E-11 0.226E-01
       120.053956       52.522876      703.534843    22     0     0     0     2   4.370 0.205E-59 0.411E-59 0.347E-06
        79.016203        3.171207      685.268528    21     0     0     0     7   4.300 0.205E-56 0.411E-56 0.443E-06
        94.656289      139.871803      191.245201    24     0     0     0     3   4.500 0.205E-65 0.411E-65 0.222E-06
       133.106830      128.304126      873.732651    19     0     0     0     5   4.160 0.205E-50 0.411E-50 0.765E-06
        82.658531      117.489808      437.260206    13     0     0     0     2   3.660 0.205E-32 0.411E-32 0.735E-05
        71.636003       65.352601      431.119106    18     0     0     0     1   4.080 0.205E-47 0.411E-47 0.103E-05
        33.229912      114.915526      166.901534    14     0     0     0     5   3.760 0.205E-35 0.411E-35 0.461E-05
        53.686581       88.143623      695.932070    19     0     0     0     1   4.160 0.205E-50 0.411E-50 0.765E-06
        84.969792       81.641015      289.075696    15     0     0     0     1   3.840 0.205E-38 0.411E-38 0.300E-05
       101.497123      186.676557      221.039960    16     0     0     0     2   3.930 0.205E-41 0.411E-41 0.205E-05
        65.125533      172.455981      348.040259    17     0     0     0     7   4.010 0.205E-44 0.411E-44 0.143E-05
       107.792539       50.178326      514.988442     9     0     0     0     1   3.240 0.205E-20 0.411E-20 0.954E-04
       157.620564       13.586356       30.734882     8     0     0     0     2   3.120 0.205E-17 0.411E-17 0.303E-01
       133.901392      104.550800      300.260916     9     0     0     0     6   3.240 0.205E-20 0.411E-20 0.954E-04
        84.381127      193.194324      395.657210    13     0     0     0     4   3.660 0.205E-32 0.411E-32 0.735E-05
       156.542273      150.372366      189.882206     9     0     0     0     5   3.240 0.205E-20 0.411E-20 0.954E-04
        84.374333       51.470551      299.254201     9     0     0     0     6   3.240 0.205E-20 0.411E-20 0.954E-04
       105.636755       96.246122       77.162972    12     0     0     0     1   3.570 0.205E-29 0.411E-29 0.125E-04
       118.895537      148.841674     1178.141127     1     0     0     0     1   1.560 0.205E+04 0.411E+04 0.000E+00
       163.811121       40.794576      360.037234    10     0     0     0     8   3.360 0.205E-23 0.411E-23 0.438E-04
       198.239142      115.858615      266.061114    15     0     0     0     5   3.840 0.205E-38 0.411E-38 0.300E-05
        71.393850      195.886112      282.288641     5     0     0     0     3   2.660 0.205E-08 0.411E-08 0.505E+00
       131.526284      116.134378      460.222683    12     0     0     0     3   3.570 0.205E-29 0.411E-29 0.125E-04
        66.627245      109.850850      239.981968     6     0     0     0     6   2.830 0.205E-11 0.411E-11 0.226E-01
        27.083587       16.609617      372.239203     9     0     0     0     4   3.240 0.205E-20 0.411E-20 0.954E-04
       159.053500       69.830128       31.437147     9     0     0     0     3   3.240 0.205E-20 0.411E-20 0.954E-04
       116.469202       70.550058      668.714295    10     0     0     0     5   3.360 0.205E-23 0.411E-23 0.438E-04
       122.568530       38.500133      783.872988    25     0     0     0     5   4.560 0.205E-68 0.411E-68 0.181E-06
       165.045863       57.834097       91.673459    12     0     0     0     2   3.570 0.205E-29 0.411E-29 0.125E-04
       116.604572       58.189456      100.495549    11     0     0     0     4   3.470 0.205E-26 0.411E-26 0.225E-04
        79.332676       17.619628      338.120968    15     0     0     0     7   3.840 0.205E-38 0.411E-38 0.300E-05
        42.565668       17.835139     2848.313400     1     0     0     0     2   1.560 0.205E+04 0.411E+04 0.000E+00
        75.083232       17.231323      123.787171     8     0     0     0     2   3.120 0.205E-17 0.411E-17 0.303E-01
        40.104129      152.146018      746.090082    21     0     0     0     2   4.300 0.205E-56 0.411E-56 0.443E-06
       181.769494       30.124180      287.399081    16     0     0     0     2   3.930 0.205E-41 0.411E-41 0.205E-05
       153.993862      105.987717      465.100181    17     0     0     0     1   4.010 0.205E-44 0.411E-44 0.143E-05
       178.981017      162.215417      439.465079     6     0     0     0     1   2.830 0.205E-11 0.411E-11 0.226E-01
       187.964498      187.017295      428.325971     8     0     0     0     8   3.120 0.205E-17 0.411E-17 0.303E-01
       190.684614      172.435448      609.646305    15     0     0     0     1   3.840 0.205E-38 0.411E-38 0.300E-05
       118.756621       48.847421      360.700566    13     0     0     0     4   3.660 0.205E-32 0.411E-32 0.735E-05
       189.625262       48.658551       51.156701    14     0     0     0     8   3.760 0.205E-35 0.411E-35 0.461E-05
        47.815967       75.836501      316.915706     9     0     0     0     5   3.240 0.205E-20 0.411E-20 0.954E-04
       120.987692       93.228463      419.160634    12     0     0     0     7   3.570 0.205E-29 0.411E-29 0.125E-04
        69.915281       31.162092      407.321537    11     0     0     0     2   3.470 0.205E-26 0.411E-26 0.225E-04
       198.706249       28.854689      618.456514    26     0     0     0     5   4.620 0.205E-71 0.411E-71 0.149E-06
       124.121270       61.993981      212.204042    14     0     0     0     3   3.760 0.205E-35 0.411E-35 0.461E-05
        11.897631       96.102907      270.102150    14     0     0     0     7   3.760 0.205E-35 0.411E-35 0.461E-05
       121.235379       77.071940      395.284113    16     0     0     0     7   3.930 0.205E-41 0.411E-41 0.205E-05
       114.761103      101.063241       80.083514     9     0     0     0     7   3.240 0.205E-20 0.411E-20 0.954E-04
       167.800373      167.717694       27.241053    11     0     0     0     4   3.470 0.205E-26 0.411E-26 0.225E-04
       195.704260       36.537174      130.007787     9     0     0     0     4   3.240 0.205E-20 0.411E-20 0.954E-04
        12.138938       62.601267     2552.214019     1     0     0     0     3   1.560 0.205E+04 0.411E+04 0.000E+00
       132.133583       35.970244      458.465231    13     0     0     0     1   3.660 0.205E-32 0.411E-32 0.735E-05
       195.175145       78.858377       17.046681     9     0     0     0     3   3.240 0.205E-20 0.411E-20 0.954E-04
        77.747411      178.047756     1326.481437     1     0     0     0     4   1.560 0.205E+04 0.411E+04 0.000E+00
       180.928504       22.893776      498.095555    14     0     0     0     1   3.760 0.205E-35 0.411E-35 0.461E-05
       168.245356      125.321838       79.504564     9     0     0     0     5   3.240 0.205E-20 0.411E-20 0.954E-04
       171.778902       42.118426      844.098461    12     0     0     0     1   3.570 0.205E-29 0.411E-29 0.125E-04
       140.199234        4.084596      237.410045    11     0     0     0     6   3.470 0.205E-26 0.411E-26 0.225E-04
        14.620965       42.030617       75.171912    17     0     0     0     4   4.010 0.205E-44 0.411E-44 0.143E-05
       119.343147       98.027318       54.225113     9     0     0     0     5   3.240 0.205E-20 0.411E-20 0.954E-04
         9.364800       29.992474      372.474306    13     0     0     0     7   3.660 0.205E-32 0.411E-32 0.735E-05
        61.776863      111.096186     1859.808512     1     0     0     0     1   1.560 0.205E+04 0.411E+04 0.000E+00
       182.536515      123.660241      154.057776    12     0     0     0     5   3.570 0.205E-29 0.411E-29 0.125E-04
        85.330429       52.827798      649.399830    23     0     0     0     3   4.430 0.205E-62 0.411E-62 0.275E-06
       116.105942        4.551717      458.572817     9     0     0     0     5   3.240 0.205E-20 0.411E-20 0.954E-04
        49.178872      199.924159      324.191105     9     0     0     0     2   3.240 0.205E-20 0.411E-20 0.954E-04
       196.855819      130.746666      151.344618    13     0     0     0     3   3.660 0.205E-32 0.411E-32 0.735E-05
       181.805046       85.495823      774.041822    26     0     0     0     4   4.620 0.205E-71 0.411E-71 0.149E-06
       187.933725      131.001859      288.446302    14     0     0     0     5   3.760 0.205E-35 0.411E-35 0.461E-05
        56.656369      154.011464      815.380394    13     0     0     0     7   3.660 0.205E-32 0.411E-32 0.735E-05
        95.486151       81.762349      370.799259    16     0     0     0     1   3.930 0.205E-41 0.411E-41 0.205E-05
       137.648240      191.803721     1037.675246    54     0     0     0     3   5.890 0.205-155 0.411-155 0.655E-08
       154.326464       58.454915      530.595148    13     0     0     0     5   3.660 0.205E-32 0.411E-32 0.735E-05
        86.285633      164.519133      163.374767    14     0     0     0     3   3.760 0.205E-35 0.411E-35 0.461E-05
       135.710094       97.828391      111.256665    10     0     0     0     2   3.360 0.205E-23 0.411E-23 0.438E-04
        43.347867      174.956552      484.157785    23     0     0     0     7   4.430 0.205E-62 0.411E-62 0.275E-06
        39.470913       34.470190      129.871902    21     0     0     0     4   4.300 0.205E-56 0.411E-56 0.443E-06
        63.514784        9.564383      426.956287     9     0     0     0     3   3.240 0.205E-20 0.411E-20 0.954E-04
       187.804135       88.098847      320.517775    12     0     0     0     7   3.570 0.205E-29 0.411E-29 0.125E-04
       101.054905       65.117864      361.370915     9     0     0     0     5   3.240 0.205E-20 0.411E-20 0.954E-04
       110.865406      164.185717       40.347957     7     0     0     0     4   2.980 0.205E-14 0.411E-14 0.305E+00
       148.646724       11.381769      118.995798    10     0     0     0     6   3.360 0.205E-23 0.411E-23 0.438E-04
       183.831171       88.482212       66.560071    11     0     0     0     7   3.470 0.205E-26 0.411E-26 0.225E-04
       163.759382      194.260116      700.347634    26     0     0     0     6   4.620 0.205E-71 0.411E-71 0.149E-06
        91.555690      168.567916       66.232380    16     0     0     0     7   3.930 0.205E-41 0.411E-41 0.205E-05
        91.242323      103.185768      131.290292    10     0     0     0     6   3.360 0.205E-23 0.411E-23 0.438E-04
        69.357016       10.862433      204.576291    20     0     0     0     4   4.230 0.205E-53 0.411E-53 0.578E-06
        29.144327       51.612086      654.601244    14     0     0     0     8   3.760 0.205E-35 0.411E-35 0.461E-05
        36.360304       69.880422      158.509075    10     0     0     0     1   3.360 0.205E-23 0.411E-23 0.438E-04
       156.290046       89.501436       64.003936    10     0     0     0     8   3.360 0.205E-23 0.411E-23 0.438E-04
        14.297527      191.558534      818.868754    16     0     0     0     5   3.930 0.205E-41 0.411E-41 0.205E-05
        86.620927      153.975224      121.417730    11     0     0     0     6   3.470 0.205E-26 0.411E-26 0.225E-04
        14.482118      108.097359     1944.323835     1     0     0     0     1   1.560 0.205E+04 0.411E+04 0.000E+00
       132.145149       38.579207       49.018579    16     0     0     0     5   3.930 0.205E-41 0.411E-41 0.205E-05
        44.505162       82.595695      853.485457    20     0     0     0     5   4.230 0.205E-53 0.411E-53 0.578E-06
       198.452540        6.519406      681.277720    24     0     0     0     2   4.500 0.205E-65 0.411E-65 0.222E-06
       153.394634      110.882309      235.431680     9     0     0     0     5   3.240 0.205E-20 0.411E-20 0.954E-04
        98.061691      142.047210       23.025201     6     0     0     0     3   2.830 0.205E-11 0.411E-11 0.226E-01
       188.535888      156.499715      960.300409    25     0     0     0     7   4.560 0.205E-68 0.411E-68 0.181E-06
        72.575655      177.599926     4067.734413     1     0     0     0     8   1.560 0.205E+04 0.411E+04 0.000E+00
       112.123705      190.567275      341.085039     9     0     0     0     5   3.240 0.205E-20 0.411E-20 0.954E-04
       124.895951      182.551921     2256.182139     1     0     0     0     6   1.560 0.205E+04 0.411E+04 0.000E+00
       134.770674       31.589511      209.956311    14     0     0     0     3   3.760 0.205E-35 0.411E-35 0.461E-05
        24.031469       58.631028      387.606556     9     0     0     0     1   3.240 0.205E-20 0.411E-20 0.954E-04
       157.063968       85.038332     2812.894189     1     0     0     0     7   1.560 0.205E+04 0.411E+04 0.000E+00
       104.256922      191.293224      419.995838    18     0     0     0     4   4.080 0.205E-47 0.411E-47 0.103E-05
       154.114390      184.525554       75.340852    13     0     0     0     1   3.660 0.205E-32 0.411E-32 0.735E-05
       134.691756       73.108936      514.584422    20     0     0     0     6   4.230 0.205E-53 0.411E-53 0.578E-06
       161.856563      155.676731      536.776224    23     0     0     0     1   4.430 0.205E-62 0.411E-62 0.275E-06
        51.053699       95.080533      590.963479    27     0     0     0     4   4.680 0.205E-74 0.411E-74 0.124E-06
        85.309126       55.630648      337.413867    11     0     0     0     7   3.470 0.205E-26 0.411E-26 0.225E-04
         4.254788      135.226066      559.526675    19     0     0     0     8   4.160 0.205E-50 0.411E-50 0.765E-06
       173.266760      124.086154      341.256599    15     0     0     0     8   3.840 0.205E-38 0.411E-38 0.300E-05
       172.665919      117.453826      242.958486     7     0     0     0     2   2.980 0.205E-14 0.411E-14 0.305E+00
       194.953378       31.553957      120.838931    11     0     0     0     4   3.470 0.205E-26 0.411E-26 0.225E-04
       126.393163       54.471200      341.564414    11     0     0     0     4   3.470 0.205E-26 0.411E-26 0.225E-04
        66.694939       91.046582      185.777667    10     0     0     0     7   3.360 0.205E-23 0.411E-23 0.438E-04
        76.550435      126.419943      222.694085    18     0     0     0     6   4.080 0.205E-47 0.411E-47 0.103E-05
        20.352017       86.342668      700.363096    13     0     0     0     2   3.660 0.205E-32 0.411E-32 0.735E-05
       178.077252      159.759535       40.679889     6     0     0     0     5   2.830 0.205E-11 0.411E-11 0.226E-01
        20.166810      162.986807      558.626618    11     0     0     0     6   3.470 0.205E-26 0.411E-26 0.225E-04
        36.844760      194.107076     2075.606249     1     0     0     0     7   1.560 0.205E+04 0.411E+04 0.000E+00
       111.288584      151.763894     3327.220137     1     0     0     0     7   1.560 0.205E+04 0.411E+04 0.000E+00
       191.647004      106.957208       41.023411    14     0     0     0     1   3.760 0.205E-35 0.411E-35 0.461E-05
       115.962957      192.252901      202.327344    17     0     0     0     4   4.010 0.205E-44 0.411E-44 0.143E-05
       190.680149      194.857428     1967.357848     1     0     0     0     3   1.560 0.205E+04 0.411E+04 0.000E+00
       174.930022      145.271792      574.500040     6     0     0     0     8   2.830 0.205E-11 0.411E-11 0.226E-01
        37.395648       99.975636      587.599734    12     0     0     0     6   3.570 0.205E-29 0.411E-29 0.125E-04
       192.681945       49.246727       64.439787    14     0     0     0     4   3.760 0.205E-35 0.411E-35 0.461E-05
        98.397389      180.574908      491.148852    18     0     0     0     7   4.080 0.205E-47 0.411E-47 0.103E-05
       161.858857      157.536919      646.483439    26     0     0     0     1   4.620 0.205E-71 0.411E-71 0.149E-06
         6.634799       20.574716      319.401105    14     0     0     0     8   3.760 0.205E-35 0.411E-35 0.461E-05
        56.129533      122.381657      155.283408     9     0     0     0     3   3.240 0.205E-20 0.411E-20 0.954E-04
       178.642297      131.002360      373.665615    11     0     0     0     3   3.470 0.205E-26 0.411E-26 0.225E-04
        85.775693       80.531238      160.166091     9     0     0     0     1   3.240 0.205E-20 0.411E-20 0.954E-04
       102.805929       45.419602      122.483314     8     0     0     0     5   3.120 0.205E-17 0.411E-17 0.303E-01
       185.248997       49.818083      739.747065    20     0     0     0     6   4.230 0.205E-53 0.411E-53 0.578E-06
         7.717425      190.466079     1764.583583     1     0     0     0     6   1.560 0.205E+04 0.411E+04 0.000E+00
        32.388718       60.003224     2530.469860     1     0     0     0     2   1.560 0.205E+04 0.411E+04 0.000E+00
        93.024411      139.894656      625.214478    18     0     0     0     6   4.080 0.205E-47 0.411E-47 0.103E-05
        52.189601       96.775709      434.766350    15     0     0     0     5   3.840 0.205E-38 0.411E-38 0.300E-05
       140.133149      119.449695      724.911056    25     0     0     0     7   4.560 0.205E-68 0.411E-68 0.181E-06
       126.626713       70.850791       59.021702    14     0     0     0     4   3.760 0.205E-35 0.411E-35 0.461E-05
       107.280029       69.512174      796.301420    21     0     0     0     8   4.300 0.205E-56 0.411E-56 0.443E-06
        59.832135      196.933926      405.922872    17     0     0     0     2   4.010 0.205E-44 0.411E-44 0.143E-05
         7.379329      175.715167      457.081692    19     0     0     0     5   4.160 0.205E-50 0.411E-50 0.765E-06
        44.378969       36.664971      217.214986    10     0     0     0     5   3.360 0.205E-23 0.411E-23 0.438E-04
         8.988632      108.286100      307.568735    10     0     0     0     3   3.360 0.205E-23 0.411E-23 0.438E-04
        74.143926      186.001710      224.603325    16     0     0     0     1   3.930 0.205E-41 0.411E-41 0.205E-05
       199.498014      176.036191      779.627938    12     0     0     0     4   3.570 0.205E-29 0.411E-29 0.125E-04
         9.968392      150.849465      389.379456    15     0     0     0     6   3.840 0.205E-38 0.411E-38 0.300E-05
       184.491451      157.138314      320.519125    12     0     0     0     2   3.570 0.205E-29 0.411E-29 0.125E-04
       140.998689       86.963348      101.502835     6     0     0     0     5   2.830 0.205E-11 0.411E-11 0.226E-01
        20.229280      166.231161       62.174000    13     0     0     0     5   3.660 0.205E-32 0.411E-32 0.735E-05
       139.620825      159.871599      387.402151     9     0     0     0     3   3.240 0.205E-20 0.411E-20 0.954E-04
        33.472437      128.220832      806.600596    27     0     0     0     8   4.680 0.205E-74 0.411E-74 0.124E-06
        14.300798      145.003736     1416.063877     1     0     0     0     2   1.560 0.205E+04 0.411E+04 0.000E+00
        15.750782       22.552747     1854.297616     1     0     0     0     7   1.560 0.205E+04 0.411E+04 0.000E+00
       148.919786        2.031833     1557.992911     1     0     0     0     4   1.560 0.205E+04 0.411E+04 0.000E+00
        46.419925       25.743459      461.306305    10     0     0     0     5   3.360 0.205E-23 0.411E-23 0.438E-04
       146.643519      181.027597      270.835246    13     0     0     0     5   3.660 0.205E-32 0.411E-32 0.735E-05
        84.213792      164.529367      768.448971    24     0     0     0     1   4.500 0.205E-65 0.411E-65 0.222E-06
       164.291183       48.134516      252.273902     6     0     0     0     2   2.830 0.205E-11 0.411E-11 0.226E-01
       157.066830       30.971370      286.115563    11     0     0     0     6   3.470 0.205E-26 0.411E-26 0.225E-04
       121.818578       42.282754      474.555443    11     0     0     0     5   3.470 0.205E-26 0.411E-26 0.225E-04
        19.447625       74.206798     3144.997700     1     0     0     0     3   1.560 0.205E+04 0.411E+04 0.000E+00
        29.626799        2.757006      960.370906    35     0     0     0     8   5.100 0.205E-98 0.411E-98 0.377E-07
        99.749110      169.042280      201.817924    13     0     0     0     2   3.660 0.205E-32 0.411E-32 0.735E-05
        81.740453       40.801116      619.303770    11     0     0     0     3   3.470 0.205E-26 0.411E-26 0.225E-04
       165.927880       83.647822      344.094978    16     0     0     0     8   3.930 0.205E-41 0.411E-41 0.205E-05
       117.314156       26.131784      435.918395    14     0     0     0     2   3.760 0.205E-35 0.411E-35 0.461E-05
        87.289589       64.997570      464.838703    14     0     0     0     2   3.760 0.205E-35 0.411E-35 0.461E-05
        92.979119       48.325717     1582.781130     1     0     0     0     2   1.560 0.205E+04 0.411E+04 0.000E+00
        65.273638       47.718646       48.153904    12     0     0     0     7   3.570 0.205E-29 0.411E-29 0.125E-04
       103.046566      144.262195     1806.027698     1     0     0     0     6   1.560 0.205E+04 0.411E+04 0.000E+00
        47.354822       84.449048      158.471204     9     0     0     0     2   3.240 0.205E-20 0.411E-20 0.954E-04
         3.183738       87.720472      301.069663     8     0     0     0     6   3.120 0.205E-17 0.411E-17 0.303E-01
        58.186511      198.840586      219.117513    12     0     0     0     4   3.570 0.205E-29 0.411E-29 0.125E-04
       150.283602        3.395649     1452.179156     1     0     0     0     3   1.560 0.205E+04 0.411E+04 0.000E+00
        62.558822      142.197521      174.597907    18     0     0     0     2   4.080 0.205E-47 0.411E-47 0.103E-05
       199.163015      173.442876      465.234410    12     0     0     0     8   3.570 0.205E-29 0.411E-29 0.125E-04
        20.407679       15.201958      267.020132    11     0     0     0     7   3.470 0.205E-26 0.411E-26 0.225E-04
       173.919202      110.405202      116.268054    12     0     0     0     8   3.570 0.205E-29 0.411E-29 0.125E-04
        92.986520       90.799107      911.761889    46     0     0     0     1   5.580 0.205-131 0.411-131 0.121E-07
        36.145315      159.002961      136.999645     7     0     0     0     3   2.980 0.205E-14 0.411E-14 0.305E+00
        99.879317       42.650675      552.217052    18     0     0     0     2   4.080 0.205E-47 0.411E-47 0.103E-05
       176.021825      198.352576      113.918569    14     0     0     0     6   3.760 0.205E-35 0.411E-35 0.461E-05
        48.535916      136.371285      504.700148    19     0     0     0     1   4.160 0.205E-50 0.411E-50 0.765E-06
        53.313590      166.610881      341.734230     6     0     0     0     5   2.830 0.205E-11 0.411E-11 0.226E-01
        90.777168       75.842761      535.626477    15     0     0     0     8   3.840 0.205E-38 0.411E-38 0.300E-05
       125.251883       48.286411      660.119129    27     0     0     0     3   4.680 0.205E-74 0.411E-74 0.124E-06
       191.103471      189.720491      442.072533    13     0     0     0     7   3.660 0.205E-32 0.411E-32 0.735E-05
       101.630774      133.600193      274.102567    11     0     0     0     7   3.470 0.205E-26 0.411E-26 0.225E-04
       116.093904       28.390559       28.726266     9     0     0     0     6   3.240 0.205E-20 0.411E-20 0.954E-04
       193.729080       76.270517      375.330694     8     0     0     0     1   3.120 0.205E-17 0.411E-17 0.303E-01
       120.531350       69.535966      495.664905     9     0     0     0     7   3.240 0.205E-20 0.411E-20 0.954E-04
       185.519586       83.619158       99.297485    12     0     0     0     4   3.570 0.205E-29 0.411E-29 0.125E-04
         3.935986      114.297948      366.514852    11     0     0     0     7   3.470 0.205E-26 0.411E-26 0.225E-04
       101.415673       31.965436     1915.235744     1     0     0     0     6   1.560 0.205E+04 0.411E+04 0.000E+00
        26.060561      126.783927     1889.333020     1     0     0     0     5   1.560 0.205E+04 0.411E+04 0.000E+00
        85.279327      110.862333      536.933150    13     0     0     0     7   3.660 0.205E-32 0.411E-32 0.735E-05
        17.214158      161.105156      239.248219    10     0     0     0     7   3.360 0.205E-23 0.411E-23 0.438E-04
       144.497725       61.239522      321.732739    16     0     0     0     3   3.930 0.205E-41 0.411E-41 0.205E-05
        23.814863       11.969914       94.144951    17     0     0     0     6   4.010 0.205E-44 0.411E-44 0.143E-05
       186.506977       27.125986      560.284272    23     0     0     0     6   4.430 0.205E-62 0.411E-62 0.275E-06
         1.612849       49.540176     2008.877200     1     0     0     0     3   1.560 0.205E+04 0.411E+04 0.000E+00
       106.579410      102.054590       59.121998     6     0     0     0     6   2.830 0.205E-11 0.411E-11 0.226E-01
       177.598676       23.721280       26.482010    15     0     0     0     1   3.840 0.205E-38 0.411E-38 0.300E-05
       147.232439      155.953909      174.482297    10     0     0     0     1   3.360 0.205E-23 0.411E-23 0.438E-04
       195.951767       86.324492     2238.338181     1     0     0     0     6   1.560 0.205E+04 0.411E+04 0.000E+00
         2.665498       70.014401     1018.905058    55     0     0     0     1   5.930 0.205-158 0.411-158 0.611E-08
       155.472320      182.582328      629.701769    20     0     0     0     1   4.230 0.205E-53 0.411E-53 0.578E-06
        94.867854       38.770102       46.299938    14     0     0     0     8   3.760 0.205E-35 0.411E-35 0.461E-05
        80.422664      138.339351      756.990888    16     0     0     0     6   3.930 0.205E-41 0.411E-41 0.205E-05
       192.099372      129.131670     3591.302244     1     0     0     0     1   1.560 0.205E+04 0.411E+04 0.000E+00
        99.904478       14.845673      103.563467    10     0     0     0     8   3.360 0.205E-23 0.411E-23 0.438E-04
        22.258180       97.809548      340.450692    13     0     0     0     4   3.660 0.205E-32 0.411E-32 0.735E-05
       194.850834       39.629498      213.897658    11     0     0     0     6   3.470 0.205E-26 0.411E-26 0.225E-04
        32.192202      118.320390      682.922112    13     0     0     0     7   3.660 0.205E-32 0.411E-32 0.735E-05
       144.341793      127.742978      244.927566     9     0     0     0     5   3.240 0.205E-20 0.411E-20 0.954E-04
        57.617271      124.426486       70.070067    14     0     0     0     4   3.760 0.205E-35 0.411E-35 0.461E-05
        77.754213       91.674642     2223.729114     1     0     0     0     7   1.560 0.205E+04 0.411E+04 0.000E+00
       196.406185       81.005835      556.198413    15     0     0     0     3   3.840 0.205E-38 0.411E-38 0.300E-05
        89.553276      198.108174     2070.372069     1     0     0     0     7   1.560 0.205E+04 0.411E+04 0.000E+00
       100.360370       41.285085      149.536509    10     0     0     0     8   3.360 0.205E-23 0.411E-23 0.438E-04
       148.202653      198.443104       84.509234    12     0     0     0     6   3.570 0.205E-29 0.411E-29 0.125E-04
       168.950532       25.846781      425.365814    12     0     0     0     3   3.570 0.205E-29 0.411E-29 0.125E-04
       122.847730      134.822810       83.015571    11     0     0     0     6   3.470 0.205E-26 0.411E-26 0.225E-04
        74.565187      187.024369      576.744258    22     0     0     0     8   4.370 0.205E-59 0.411E-59 0.347E-06
       167.100723      177.618532      408.587793    12     0     0     0     8   3.570 0.205E-29 0.411E-29 0.125E-04
        34.276861       81.512307     1806.715954     1     0     0     0     7   1.560 0.205E+04 0.411E+04 0.000E+00
        20.533618       83.983208       73.034931    10     0     0     0     1   3.360 0.205E-23 0.411E-23 0.438E-04
       149.523570       24.503941      234.071743    10     0     0     0     1   3.360 0.205E-23 0.411E-23 0.438E-04
         9.955328      110.018273      161.770994    13     0     0     0     5   3.660 0.205E-32 0.411E-32 0.735E-05