ITEM: TIMESTEP
0
ITEM: NUMBER OF ATOMS
         425
ITEM: BOX BOUNDS pp pp pp
  0.0000000E+00   200.000000000000     
  0.0000000E+00   200.000000000000     
  0.0000000E+00   5000.00000000000     
ITEM: ATOMS x y z f1 f2 f3 f4 orient radius rate_mig rate_rot rate_emit
        42.085409       15.425974      513.798196    13     0     0     0     6   3.660 0.318E-32 0.635E-32 0.178E-04
       156.833165       82.166430      500.425169    12     0     0     0     2   3.570 0.318E-29 0.635E-29 0.299E-04
       137.796250       42.286976      116.475464    10     0     0     0     7   3.360 0.318E-23 0.635E-23 0.102E-03
         5.283744       14.817722       22.158688    11     0     0     0     3   3.470 0.318E-26 0.635E-26 0.533E-04
        87.302005      152.429467       92.463803    11     0     0     0     2   3.470 0.318E-26 0.635E-26 0.533E-04
         9.216460       83.059706     2121.718349     1     0     0     0     3   1.560 0.318E+04 0.635E+04 0.000E+00
         3.666750        8.818418       94.597439    26     0     0     0     7   4.620 0.318E-71 0.635E-71 0.395E-06
        70.659284       40.262630     1593.825829     1     0     0     0     1   1.560 0.318E+04 0.635E+04 0.000E+00
        79.880707      149.743571      424.642667    12     0     0     0     7   3.570 0.318E-29 0.635E-29 0.299E-04
       162.283973       26.201614      264.452478    14     0     0     0     5   3.760 0.318E-35 0.635E-35 0.113E-04
        18.225410       95.904575      327.821135    18     0     0     0     7   4.080 0.318E-47 0.635E-47 0.262E-05
        72.932093      131.815964      253.045299     6     0     0     0     6   2.830 0.318E-11 0.635E-11 0.460E-01
       129.655182       26.490380      103.759805    10     0     0     0     3   3.360 0.318E-23 0.635E-23 0.102E-03
       138.248213       95.792369      529.222476    14     0     0     0     2   3.760 0.318E-35 0.635E-35 0.113E-04
       174.530356      182.599025      217.446729    11     0     0     0     4   3.470 0.318E-26 0.635E-26 0.533E-04
       151.642140      137.794290      276.918627     6     0     0     0     3   2.830 0.318E-11 0.635E-11 0.460E-01
       120.053956       52.522876      703.534843    22     0     0     0     2   4.370 0.318E-59 0.635E-59 0.902E-06
        79.016203        3.171207      685.268528    21     0     0     0     7   4.300 0.318E-56 0.635E-56 0.114E-05
        94.656289      139.871803      191.245201    24     0     0     0     3   4.500 0.318E-65 0.635E-65 0.583E-06
       133.106830      128.304126      873.732651    19     0     0     0     5   4.160 0.318E-50 0.635E-50 0.195E-05
        82.658531      117.489808      437.260206    13     0     0     0     2   3.660 0.318E-32 0.635E-32 0.178E-04
        71.636003       65.352601      431.119106    18     0     0     0     1   4.080 0.318E-47 0.635E-47 0.262E-05
        33.229912      114.915526      166.901534    14     0     0     0     5   3.760 0.318E-35 0.635E-35 0.113E-04
        53.686581       88.143623      695.932070    19     0     0     0     1   4.160 0.318E-50 0.635E-50 0.195E-05
        84.969792       81.641015      289.075696    15     0     0     0     1   3.840 0.318E-38 0.635E-38 0.743E-05
       101.497123      186.676557      221.039960    16     0     0     0     2   3.930 0.318E-41 0.635E-41 0.511E-05
        65.125533      172.455981      348.040259    17     0     0     0     7   4.010 0.318E-44 0.635E-44 0.361E-05
       107.792539       50.178326      514.988442     9     0     0     0     1   3.240 0.318E-20 0.635E-20 0.219E-03
       157.620564       13.586356       30.734882     8     0     0     0     2   3.120 0.318E-17 0.635E-17 0.616E-01
       133.901392      104.550800      300.260916     9     0     0     0     6   3.240 0.318E-20 0.635E-20 0.219E-03
        84.381127      193.194324      395.657210    13     0     0     0     4   3.660 0.318E-32 0.635E-32 0.178E-04
       156.542273      150.372366      189.882206     9     0     0     0     5   3.240 0.318E-20 0.635E-20 0.219E-03
        84.374333       51.470551      299.254201     9     0     0     0     6   3.240 0.318E-20 0.635E-20 0.219E-03
       105.636755       96.246122       77.162972    12     0     0     0     1   3.570 0.318E-29 0.635E-29 0.299E-04
       198.583319      128.326899       40.496506     6     0     0     0     2   2.830 0.318E-11 0.635E-11 0.460E-01
       163.811121       40.794576      360.037234    10     0     0     0     8   3.360 0.318E-23 0.635E-23 0.102E-03
       198.239142      115.858615      266.061114    15     0     0     0     5   3.840 0.318E-38 0.635E-38 0.743E-05
        58.887379        2.346636      279.054912     8     0     0     0     1   3.120 0.318E-17 0.635E-17 0.616E-01
       131.526284      116.134378      460.222683    12     0     0     0     3   3.570 0.318E-29 0.635E-29 0.299E-04
        66.627245      109.850850      239.981968     6     0     0     0     6   2.830 0.318E-11 0.635E-11 0.460E-01
        27.083587       16.609617      372.239203     9     0     0     0     4   3.240 0.318E-20 0.635E-20 0.219E-03
       159.053500       69.830128       31.437147     9     0     0     0     3   3.240 0.318E-20 0.635E-20 0.219E-03
       116.469202       70.550058      668.714295    10     0     0     0     5   3.360 0.318E-23 0.635E-23 0.102E-03
        33.912434      189.938269      289.534257     6     0     0     0     2   2.830 0.318E-11 0.635E-11 0.460E-01
       165.045863       57.834097       91.673459    12     0     0     0     2   3.570 0.318E-29 0.635E-29 0.299E-04
       116.604572       58.189456      100.495549    11     0     0     0     4   3.470 0.318E-26 0.635E-26 0.533E-04
        79.332676       17.619628      338.120968    15     0     0     0     7   3.840 0.318E-38 0.635E-38 0.743E-05
       101.201363      163.828645     3605.457732     1     0     0     0     6   1.560 0.318E+04 0.635E+04 0.000E+00
        74.309420       31.005605     2339.137692     1     0     0     0     5   1.560 0.318E+04 0.635E+04 0.000E+00
        40.104129      152.146018      746.090082    21     0     0     0     2   4.300 0.318E-56 0.635E-56 0.114E-05
       181.769494       30.124180      287.399081    16     0     0     0     2   3.930 0.318E-41 0.635E-41 0.511E-05
       153.993862      105.987717      465.100181    17     0     0     0     1   4.010 0.318E-44 0.635E-44 0.361E-05
       116.397292      149.425480     1553.335829     1     0     0     0     1   1.560 0.318E+04 0.635E+04 0.000E+00
       158.271685       78.418617      415.260031    20     0     0     0     4   4.230 0.318E-53 0.635E-53 0.149E-05
       190.684614      172.435448      609.646305    15     0     0     0     1   3.840 0.318E-38 0.635E-38 0.743E-05
         7.229984      105.540575       86.033640    14     0     0     0     6   3.760 0.318E-35 0.635E-35 0.113E-04
       189.625262       48.658551       51.156701    14     0     0     0     8   3.760 0.318E-35 0.635E-35 0.113E-04
        47.815967       75.836501      316.915706     9     0     0     0     5   3.240 0.318E-20 0.635E-20 0.219E-03
       120.987692       93.228463      419.160634    12     0     0     0     7   3.570 0.318E-29 0.635E-29 0.299E-04
        69.915281       31.162092      407.321537    11     0     0     0     2   3.470 0.318E-26 0.635E-26 0.533E-04
       198.706249       28.854689      618.456514    26     0     0     0     5   4.620 0.318E-71 0.635E-71 0.395E-06
       124.121270       61.993981      212.204042    14     0     0     0     3   3.760 0.318E-35 0.635E-35 0.113E-04
        11.897631       96.102907      270.102150    14     0     0     0     7   3.760 0.318E-35 0.635E-35 0.113E-04
       121.235379       77.071940      395.284113    16     0     0     0     7   3.930 0.318E-41 0.635E-41 0.511E-05
       114.761103      101.063241       80.083514     9     0     0     0     7   3.240 0.318E-20 0.635E-20 0.219E-03
       167.800373      167.717694       27.241053    11     0     0     0     4   3.470 0.318E-26 0.635E-26 0.533E-04
       195.704260       36.537174      130.007787     9     0     0     0     4   3.240 0.318E-20 0.635E-20 0.219E-03
       172.182383      118.221977      243.274473     6     0     0     0     2   2.830 0.318E-11 0.635E-11 0.460E-01
       132.133583       35.970244      458.465231    13     0     0     0     1   3.660 0.318E-32 0.635E-32 0.178E-04
       195.175145       78.858377       17.046681     9     0     0     0     3   3.240 0.318E-20 0.635E-20 0.219E-03
        65.004016      192.177371      941.628022     1     0     0     0     5   1.560 0.318E+04 0.635E+04 0.000E+00
       180.928504       22.893776      498.095555    14     0     0     0     1   3.760 0.318E-35 0.635E-35 0.113E-04
       168.245356      125.321838       79.504564     9     0     0     0     5   3.240 0.318E-20 0.635E-20 0.219E-03
       171.778902       42.118426      844.098461    12     0     0     0     1   3.570 0.318E-29 0.635E-29 0.299E-04
       140.199234        4.084596      237.410045    11     0     0     0     6   3.470 0.318E-26 0.635E-26 0.533E-04
        14.620965       42.030617       75.171912    17     0     0     0     4   4.010 0.318E-44 0.635E-44 0.361E-05
       135.772785       97.837419      111.139989    12     0     0     0     6   3.570 0.318E-29 0.635E-29 0.299E-04
         9.364800       29.992474      372.474306    13     0     0     0     7   3.660 0.318E-32 0.635E-32 0.178E-04
       120.737355      131.887812     3003.875091     1     0     0     0     1   1.560 0.318E+04 0.635E+04 0.000E+00
       182.536515      123.660241      154.057776    12     0     0     0     5   3.570 0.318E-29 0.635E-29 0.299E-04
        85.330429       52.827798      649.399830    23     0     0     0     3   4.430 0.318E-62 0.635E-62 0.718E-06
       116.105942        4.551717      458.572817     9     0     0     0     5   3.240 0.318E-20 0.635E-20 0.219E-03
        49.178872      199.924159      324.191105     9     0     0     0     2   3.240 0.318E-20 0.635E-20 0.219E-03
       196.855819      130.746666      151.344618    13     0     0     0     3   3.660 0.318E-32 0.635E-32 0.178E-04
       181.805046       85.495823      774.041822    26     0     0     0     4   4.620 0.318E-71 0.635E-71 0.395E-06
       187.933725      131.001859      288.446302    14     0     0     0     5   3.760 0.318E-35 0.635E-35 0.113E-04
        56.656369      154.011464      815.380394    13     0     0     0     7   3.660 0.318E-32 0.635E-32 0.178E-04
        95.486151       81.762349      370.799259    16     0     0     0     1   3.930 0.318E-41 0.635E-41 0.511E-05
       187.964498      187.017295      428.325971     6     0     0     0     8   2.830 0.318E-11 0.635E-11 0.460E-01
       154.326464       58.454915      530.595148    13     0     0     0     5   3.660 0.318E-32 0.635E-32 0.178E-04
        86.285633      164.519133      163.374767    14     0     0     0     3   3.760 0.318E-35 0.635E-35 0.113E-04
       158.557453       75.981778      106.850630    14     0     0     0     8   3.760 0.318E-35 0.635E-35 0.113E-04
        43.347867      174.956552      484.157785    23     0     0     0     7   4.430 0.318E-62 0.635E-62 0.718E-06
       111.737375      190.629376      341.324981    10     0     0     0     8   3.360 0.318E-23 0.635E-23 0.102E-03
        63.514784        9.564383      426.956287     9     0     0     0     3   3.240 0.318E-20 0.635E-20 0.219E-03
       187.804135       88.098847      320.517775    12     0     0     0     7   3.570 0.318E-29 0.635E-29 0.299E-04
       101.054905       65.117864      361.370915     9     0     0     0     5   3.240 0.318E-20 0.635E-20 0.219E-03
        92.433881      170.491461      138.245294    13     0     0     0     5   3.660 0.318E-32 0.635E-32 0.178E-04
       148.646724       11.381769      118.995798    10     0     0     0     6   3.360 0.318E-23 0.635E-23 0.102E-03
       183.831171       88.482212       66.560071    11     0     0     0     7   3.470 0.318E-26 0.635E-26 0.533E-04
       163.759382      194.260116      700.347634    26     0     0     0     6   4.620 0.318E-71 0.635E-71 0.395E-06
        91.555690      168.567916       66.232380    16     0     0     0     7   3.930 0.318E-41 0.635E-41 0.511E-05
        91.242323      103.185768      131.290292    10     0     0     0     6   3.360 0.318E-23 0.635E-23 0.102E-03
        69.357016       10.862433      204.576291    20     0     0     0     4   4.230 0.318E-53 0.635E-53 0.149E-05
        29.144327       51.612086      654.601244    14     0     0     0     8   3.760 0.318E-35 0.635E-35 0.113E-04
        36.360304       69.880422      158.509075    10     0     0     0     1   3.360 0.318E-23 0.635E-23 0.102E-03
        58.511220      175.131093     2586.983478     1     0     0     0     2   1.560 0.318E+04 0.635E+04 0.000E+00
        14.297527      191.558534      818.868754    16     0     0     0     5   3.930 0.318E-41 0.635E-41 0.511E-05
        86.620927      153.975224      121.417730    11     0     0     0     6   3.470 0.318E-26 0.635E-26 0.533E-04
        32.785660       94.089840     2456.466987     1     0     0     0     8   1.560 0.318E+04 0.635E+04 0.000E+00
       132.145149       38.579207       49.018579    16     0     0     0     5   3.930 0.318E-41 0.635E-41 0.511E-05
        44.505162       82.595695      853.485457    20     0     0     0     5   4.230 0.318E-53 0.635E-53 0.149E-05
       198.452540        6.519406      681.277720    24     0     0     0     2   4.500 0.318E-65 0.635E-65 0.583E-06
       153.394634      110.882309      235.431680     9     0     0     0     5   3.240 0.318E-20 0.635E-20 0.219E-03
       150.734745       44.339680      539.575542    12     0     0     0     8   3.570 0.318E-29 0.635E-29 0.299E-04
       188.535888      156.499715      960.300409    25     0     0     0     7   4.560 0.318E-68 0.635E-68 0.476E-06
       140.720940       86.408591      100.953568     7     0     0     0     1   2.980 0.318E-14 0.635E-14 0.589E+00
       196.782765       21.623293     2362.524735     1     0     0     0     1   1.560 0.318E+04 0.635E+04 0.000E+00
       168.949303      179.557096      459.462520    12     0     0     0     7   3.570 0.318E-29 0.635E-29 0.299E-04
       134.770674       31.589511      209.956311    14     0     0     0     3   3.760 0.318E-35 0.635E-35 0.113E-04
        24.031469       58.631028      387.606556     9     0     0     0     1   3.240 0.318E-20 0.635E-20 0.219E-03
       175.762730      198.449141      114.120261    15     0     0     0     5   3.840 0.318E-38 0.635E-38 0.743E-05
       104.256922      191.293224      419.995838    18     0     0     0     4   4.080 0.318E-47 0.635E-47 0.262E-05
       154.114390      184.525554       75.340852    13     0     0     0     1   3.660 0.318E-32 0.635E-32 0.178E-04
       134.691756       73.108936      514.584422    20     0     0     0     6   4.230 0.318E-53 0.635E-53 0.149E-05
       161.856563      155.676731      536.776224    23     0     0     0     1   4.430 0.318E-62 0.635E-62 0.718E-06
        51.053699       95.080533      590.963479    27     0     0     0     4   4.680 0.318E-74 0.635E-74 0.330E-06
       163.967867      116.823539       47.880631    12     0     0     0     5   3.570 0.318E-29 0.635E-29 0.299E-04
         4.254788      135.226066      559.526675    19     0     0     0     8   4.160 0.318E-50 0.635E-50 0.195E-05
       106.193332      145.382439      376.045730    12     0     0     0     4   3.570 0.318E-29 0.635E-29 0.299E-04
        59.843688      135.738987       32.455549     6     0     0     0     5   2.830 0.318E-11 0.635E-11 0.460E-01
       194.953378       31.553957      120.838931    11     0     0     0     4   3.470 0.318E-26 0.635E-26 0.533E-04
       119.192460       48.680417      360.462956    16     0     0     0     6   3.930 0.318E-41 0.635E-41 0.511E-05
        66.694939       91.046582      185.777667    10     0     0     0     7   3.360 0.318E-23 0.635E-23 0.102E-03
        76.550435      126.419943      222.694085    18     0     0     0     6   4.080 0.318E-47 0.635E-47 0.262E-05
        20.352017       86.342668      700.363096    13     0     0     0     2   3.660 0.318E-32 0.635E-32 0.178E-04
       178.077252      159.759535       40.679889     6     0     0     0     5   2.830 0.318E-11 0.635E-11 0.460E-01
        20.166810      162.986807      558.626618    11     0     0     0     6   3.470 0.318E-26 0.635E-26 0.533E-04
        57.255151       95.695241       70.718439    11     0     0     0     6   3.470 0.318E-26 0.635E-26 0.533E-04
        78.729608       49.076125     2159.302400     1     0     0     0     8   1.560 0.318E+04 0.635E+04 0.000E+00
       191.647004      106.957208       41.023411    14     0     0     0     1   3.760 0.318E-35 0.635E-35 0.113E-04
       115.962957      192.252901      202.327344    17     0     0     0     4   4.010 0.318E-44 0.635E-44 0.361E-05
       196.325573      199.102986     3389.299315     1     0     0     0     5   1.560 0.318E+04 0.635E+04 0.000E+00
       174.930022      145.271792      574.500040     6     0     0     0     8   2.830 0.318E-11 0.635E-11 0.460E-01
        37.395648       99.975636      587.599734    12     0     0     0     6   3.570 0.318E-29 0.635E-29 0.299E-04
       192.681945       49.246727       64.439787    14     0     0     0     4   3.760 0.318E-35 0.635E-35 0.113E-04
        98.397389      180.574908      491.148852    18     0     0     0     7   4.080 0.318E-47 0.635E-47 0.262E-05
       161.858857      157.536919      646.483439    26     0     0     0     1   4.620 0.318E-71 0.635E-71 0.395E-06
         6.634799       20.574716      319.401105    14     0     0     0     8   3.760 0.318E-35 0.635E-35 0.113E-04
        95.066497       38.799694       46.183493    15     0     0     0     7   3.840 0.318E-38 0.635E-38 0.743E-05
       178.642297      131.002360      373.665615    11     0     0     0     3   3.470 0.318E-26 0.635E-26 0.533E-04
        85.775693       80.531238      160.166091     9     0     0     0     1   3.240 0.318E-20 0.635E-20 0.219E-03
       105.430209      157.253403      351.959250    12     0     0     0     7   3.570 0.318E-29 0.635E-29 0.299E-04
       185.248997       49.818083      739.747065    20     0     0     0     6   4.230 0.318E-53 0.635E-53 0.149E-05
        62.824637      183.089246     3410.228917     1     0     0     0     7   1.560 0.318E+04 0.635E+04 0.000E+00
        54.975127       27.033315       91.402026    14     0     0     0     2   3.760 0.318E-35 0.635E-35 0.113E-04
        93.024411      139.894656      625.214478    18     0     0     0     6   4.080 0.318E-47 0.635E-47 0.262E-05
        52.189601       96.775709      434.766350    15     0     0     0     5   3.840 0.318E-38 0.635E-38 0.743E-05
       140.133149      119.449695      724.911056    25     0     0     0     7   4.560 0.318E-68 0.635E-68 0.476E-06
       126.626713       70.850791       59.021702    14     0     0     0     4   3.760 0.318E-35 0.635E-35 0.113E-04
       107.280029       69.512174      796.301420    21     0     0     0     8   4.300 0.318E-56 0.635E-56 0.114E-05
        59.832135      196.933926      405.922872    17     0     0     0     2   4.010 0.318E-44 0.635E-44 0.361E-05
         7.379329      175.715167      457.081692    19     0     0     0     5   4.160 0.318E-50 0.635E-50 0.195E-05
        44.378969       36.664971      217.214986    10     0     0     0     5   3.360 0.318E-23 0.635E-23 0.102E-03
         8.988632      108.286100      307.568735    10     0     0     0     3   3.360 0.318E-23 0.635E-23 0.102E-03
        74.143926      186.001710      224.603325    16     0     0     0     1   3.930 0.318E-41 0.635E-41 0.511E-05
       199.498014      176.036191      779.627938    12     0     0     0     4   3.570 0.318E-29 0.635E-29 0.299E-04
         9.968392      150.849465      389.379456    15     0     0     0     6   3.840 0.318E-38 0.635E-38 0.743E-05
       156.472846       95.200482       37.764033    11     0     0     0     1   3.470 0.318E-26 0.635E-26 0.533E-04
       122.086562      186.455310       87.899642    11     0     0     0     7   3.470 0.318E-26 0.635E-26 0.533E-04
        20.229280      166.231161       62.174000    13     0     0     0     5   3.660 0.318E-32 0.635E-32 0.178E-04
       139.620825      159.871599      387.402151     9     0     0     0     3   3.240 0.318E-20 0.635E-20 0.219E-03
        33.472437      128.220832      806.600596    27     0     0     0     8   4.680 0.318E-74 0.635E-74 0.330E-06
        74.378918       94.969686     2939.084179     1     0     0     0     2   1.560 0.318E+04 0.635E+04 0.000E+00
       195.050862      195.412728      152.635673    13     0     0     0     6   3.660 0.318E-32 0.635E-32 0.178E-04
       184.777017      157.380622      320.413897    13     0     0     0     2   3.660 0.318E-32 0.635E-32 0.178E-04
        46.419925       25.743459      461.306305    10     0     0     0     5   3.360 0.318E-23 0.635E-23 0.102E-03
       146.643519      181.027597      270.835246    13     0     0     0     5   3.660 0.318E-32 0.635E-32 0.178E-04
        84.213792      164.529367      768.448971    24     0     0     0     1   4.500 0.318E-65 0.635E-65 0.583E-06
       164.291183       48.134516      252.273902     6     0     0     0     2   2.830 0.318E-11 0.635E-11 0.460E-01
       157.066830       30.971370      286.115563    11     0     0     0     6   3.470 0.318E-26 0.635E-26 0.533E-04
       121.818578       42.282754      474.555443    11     0     0     0     5   3.470 0.318E-26 0.635E-26 0.533E-04
       106.173340      101.648520       59.528068     6     0     0     0     8   2.830 0.318E-11 0.635E-11 0.460E-01
        29.626799        2.757006      960.370906    35     0     0     0     8   5.100 0.318E-98 0.635E-98 0.103E-06
        99.749110      169.042280      201.817924    13     0     0     0     2   3.660 0.318E-32 0.635E-32 0.178E-04
        81.740453       40.801116      619.303770    11     0     0     0     3   3.470 0.318E-26 0.635E-26 0.533E-04
        88.395426      143.893923       88.644976    13     0     0     0     8   3.660 0.318E-32 0.635E-32 0.178E-04
       117.314156       26.131784      435.918395    14     0     0     0     2   3.760 0.318E-35 0.635E-35 0.113E-04
        87.289589       64.997570      464.838703    14     0     0     0     2   3.760 0.318E-35 0.635E-35 0.113E-04
       146.094071       51.011162       93.759215     6     0     0     0     3   2.830 0.318E-11 0.635E-11 0.460E-01
        65.273638       47.718646       48.153904    12     0     0     0     7   3.570 0.318E-29 0.635E-29 0.299E-04
        39.496744       34.525876      130.085144    22     0     0     0     2   4.370 0.318E-59 0.635E-59 0.902E-06
        47.354822       84.449048      158.471204     9     0     0     0     2   3.240 0.318E-20 0.635E-20 0.219E-03
         3.183738       87.720472      301.069663     8     0     0     0     6   3.120 0.318E-17 0.635E-17 0.616E-01
       191.031155      189.679302      442.295232    14     0     0     0     8   3.760 0.318E-35 0.635E-35 0.113E-04
       168.053583      164.735874     2285.185102     1     0     0     0     2   1.560 0.318E+04 0.635E+04 0.000E+00
        62.558822      142.197521      174.597907    18     0     0     0     2   4.080 0.318E-47 0.635E-47 0.262E-05
       199.163015      173.442876      465.234410    12     0     0     0     8   3.570 0.318E-29 0.635E-29 0.299E-04
        20.407679       15.201958      267.020132    11     0     0     0     7   3.470 0.318E-26 0.635E-26 0.533E-04
       173.919202      110.405202      116.268054    12     0     0     0     8   3.570 0.318E-29 0.635E-29 0.299E-04
        92.986520       90.799107      911.761889    46     0     0     0     1   5.580 0.318-131 0.635-131 0.339E-07
       113.094045      198.773689       75.743958    21     0     0     0     5   4.300 0.318E-56 0.635E-56 0.114E-05
        99.879317       42.650675      552.217052    18     0     0     0     2   4.080 0.318E-47 0.635E-47 0.262E-05
       159.665286       95.737930     3345.587150     1     0     0     0     6   1.560 0.318E+04 0.635E+04 0.000E+00
        48.535916      136.371285      504.700148    19     0     0     0     1   4.160 0.318E-50 0.635E-50 0.195E-05
        53.313590      166.610881      341.734230     6     0     0     0     5   2.830 0.318E-11 0.635E-11 0.460E-01
        90.777168       75.842761      535.626477    15     0     0     0     8   3.840 0.318E-38 0.635E-38 0.743E-05
       125.251883       48.286411      660.119129    27     0     0     0     3   4.680 0.318E-74 0.635E-74 0.330E-06
        29.599141      136.053419      133.754917     6     0     0     0     4   2.830 0.318E-11 0.635E-11 0.460E-01
       101.630774      133.600193      274.102567    11     0     0     0     7   3.470 0.318E-26 0.635E-26 0.533E-04
       116.093904       28.390559       28.726266     9     0     0     0     6   3.240 0.318E-20 0.635E-20 0.219E-03
         3.176864      199.769635      180.899947     7     0     0     0     6   2.980 0.318E-14 0.635E-14 0.589E+00
       120.531350       69.535966      495.664905     9     0     0     0     7   3.240 0.318E-20 0.635E-20 0.219E-03
       151.817157       38.794468      917.552761    37     0     0     0     7   5.190 0.318-104 0.635-104 0.811E-07
       126.937581       54.191601      341.605340    13     0     0     0     6   3.660 0.318E-32 0.635E-32 0.178E-04
        15.497183       30.369229     2760.713199     1     0     0     0     5   1.560 0.318E+04 0.635E+04 0.000E+00
       185.744740       83.481515       99.528486    13     0     0     0     8   3.660 0.318E-32 0.635E-32 0.178E-04
        85.279327      110.862333      536.933150    13     0     0     0     7   3.660 0.318E-32 0.635E-32 0.178E-04
        17.214158      161.105156      239.248219    10     0     0     0     7   3.360 0.318E-23 0.635E-23 0.102E-03
       144.497725       61.239522      321.732739    16     0     0     0     3   3.930 0.318E-41 0.635E-41 0.511E-05
        23.814863       11.969914       94.144951    17     0     0     0     6   4.010 0.318E-44 0.635E-44 0.361E-05
       186.506977       27.125986      560.284272    23     0     0     0     6   4.430 0.318E-62 0.635E-62 0.718E-06
        25.765990      177.526789      582.804381    14     0     0     0     5   3.760 0.318E-35 0.635E-35 0.113E-04
        86.326465        1.143185     2325.647952     1     0     0     0     5   1.560 0.318E+04 0.635E+04 0.000E+00
       177.598676       23.721280       26.482010    15     0     0     0     1   3.840 0.318E-38 0.635E-38 0.743E-05
       147.232439      155.953909      174.482297    10     0     0     0     1   3.360 0.318E-23 0.635E-23 0.102E-03
        21.305989      171.187100      143.184825    14     0     0     0     2   3.760 0.318E-35 0.635E-35 0.113E-04
         2.665498       70.014401     1018.905058    55     0     0     0     1   5.930 0.318-158 0.635-158 0.174E-07
       155.472320      182.582328      629.701769    20     0     0     0     1   4.230 0.318E-53 0.635E-53 0.149E-05
       119.629771       98.013235       54.351773    10     0     0     0     4   3.360 0.318E-23 0.635E-23 0.102E-03
        80.422664      138.339351      756.990888    16     0     0     0     6   3.930 0.318E-41 0.635E-41 0.511E-05
       153.130574       70.763689     3789.124097     1     0     0     0     7   1.560 0.318E+04 0.635E+04 0.000E+00
        99.904478       14.845673      103.563467    10     0     0     0     8   3.360 0.318E-23 0.635E-23 0.102E-03
        22.258180       97.809548      340.450692    13     0     0     0     4   3.660 0.318E-32 0.635E-32 0.178E-04
       194.850834       39.629498      213.897658    11     0     0     0     6   3.470 0.318E-26 0.635E-26 0.533E-04
        32.192202      118.320390      682.922112    13     0     0     0     7   3.660 0.318E-32 0.635E-32 0.178E-04
       144.341793      127.742978      244.927566     9     0     0     0     5   3.240 0.318E-20 0.635E-20 0.219E-03
        57.617271      124.426486       70.070067    14     0     0     0     4   3.760 0.318E-35 0.635E-35 0.113E-04
       196.268241       79.648929      129.083526     6     0     0     0     8   2.830 0.318E-11 0.635E-11 0.460E-01
       196.406185       81.005835      556.198413    15     0     0     0     3   3.840 0.318E-38 0.635E-38 0.743E-05
       122.630115       38.342776      783.862935    26     0     0     0     6   4.620 0.318E-71 0.635E-71 0.395E-06
       100.360370       41.285085      149.536509    10     0     0     0     8   3.360 0.318E-23 0.635E-23 0.102E-03
       148.202653      198.443104       84.509234    12     0     0     0     6   3.570 0.318E-29 0.635E-29 0.299E-04
       168.950532       25.846781      425.365814    12     0     0     0     3   3.570 0.318E-29 0.635E-29 0.299E-04
       122.847730      134.822810       83.015571    11     0     0     0     6   3.470 0.318E-26 0.635E-26 0.533E-04
        74.565187      187.024369      576.744258    22     0     0     0     8   4.370 0.318E-59 0.635E-59 0.902E-06
       167.100723      177.618532      408.587793    12     0     0     0     8   3.570 0.318E-29 0.635E-29 0.299E-04
       172.395694      192.415981     2947.818615     1     0     0     0     7   1.560 0.318E+04 0.635E+04 0.000E+00
        20.533618       83.983208       73.034931    10     0     0     0     1   3.360 0.318E-23 0.635E-23 0.102E-03
       149.523570       24.503941      234.071743    10     0     0     0     1   3.360 0.318E-23 0.635E-23 0.102E-03
         9.955328      110.018273      161.770994    13     0     0     0     5   3.660 0.318E-32 0.635E-32 0.178E-04