ITEM: TIMESTEP
0
ITEM: NUMBER OF ATOMS
         415
ITEM: BOX BOUNDS pp pp pp
  0.0000000E+00   200.000000000000     
  0.0000000E+00   200.000000000000     
  0.0000000E+00   5000.00000000000     
ITEM: ATOMS x y z f1 f2 f3 f4 orient radius rate_mig rate_rot rate_emit
        42.085409       15.425974      513.798196    13     0     0     0     6   3.660 0.392E-32 0.785E-32 0.274E-04
       156.833165       82.166430      500.425169    12     0     0     0     2   3.570 0.392E-29 0.785E-29 0.457E-04
       102.091689       13.524550     2330.154731     1     0     0     0     6   1.560 0.392E+04 0.785E+04 0.000E+00
         5.283744       14.817722       22.158688    11     0     0     0     3   3.470 0.392E-26 0.785E-26 0.809E-04
        87.302005      152.429467       92.463803    11     0     0     0     2   3.470 0.392E-26 0.785E-26 0.809E-04
       199.935625       72.018921     2840.629366     1     0     0     0     2   1.560 0.392E+04 0.785E+04 0.000E+00
         3.666750        8.818418       94.597439    26     0     0     0     7   4.620 0.392E-71 0.785E-71 0.633E-06
       177.934945      160.144753       40.537582     6     0     0     0     3   2.830 0.392E-11 0.785E-11 0.650E-01
        79.880707      149.743571      424.642667    12     0     0     0     7   3.570 0.392E-29 0.785E-29 0.457E-04
       162.283973       26.201614      264.452478    14     0     0     0     5   3.760 0.392E-35 0.785E-35 0.174E-04
        18.225410       95.904575      327.821135    18     0     0     0     7   4.080 0.392E-47 0.785E-47 0.412E-05
        72.932093      131.815964      253.045299     6     0     0     0     6   2.830 0.392E-11 0.785E-11 0.650E-01
       129.655182       26.490380      103.759805    10     0     0     0     3   3.360 0.392E-23 0.785E-23 0.154E-03
       138.248213       95.792369      529.222476    14     0     0     0     2   3.760 0.392E-35 0.785E-35 0.174E-04
         3.040865      199.905634      181.035946     6     0     0     0     5   2.830 0.392E-11 0.785E-11 0.650E-01
       151.642140      137.794290      276.918627     6     0     0     0     3   2.830 0.392E-11 0.785E-11 0.650E-01
       120.053956       52.522876      703.534843    22     0     0     0     2   4.370 0.392E-59 0.785E-59 0.143E-05
        79.016203        3.171207      685.268528    21     0     0     0     7   4.300 0.392E-56 0.785E-56 0.181E-05
        94.656289      139.871803      191.245201    24     0     0     0     3   4.500 0.392E-65 0.785E-65 0.930E-06
       133.106830      128.304126      873.732651    19     0     0     0     5   4.160 0.392E-50 0.785E-50 0.307E-05
        82.658531      117.489808      437.260206    13     0     0     0     2   3.660 0.392E-32 0.785E-32 0.274E-04
        71.636003       65.352601      431.119106    18     0     0     0     1   4.080 0.392E-47 0.785E-47 0.412E-05
        33.229912      114.915526      166.901534    14     0     0     0     5   3.760 0.392E-35 0.785E-35 0.174E-04
        53.686581       88.143623      695.932070    19     0     0     0     1   4.160 0.392E-50 0.785E-50 0.307E-05
        84.969792       81.641015      289.075696    15     0     0     0     1   3.840 0.392E-38 0.785E-38 0.115E-04
       101.497123      186.676557      221.039960    16     0     0     0     2   3.930 0.392E-41 0.785E-41 0.796E-05
        65.125533      172.455981      348.040259    17     0     0     0     7   4.010 0.392E-44 0.785E-44 0.565E-05
       107.792539       50.178326      514.988442     9     0     0     0     1   3.240 0.392E-20 0.785E-20 0.327E-03
        64.203372      128.503958     2196.413672     1     0     0     0     5   1.560 0.392E+04 0.785E+04 0.000E+00
       133.901392      104.550800      300.260916     9     0     0     0     6   3.240 0.392E-20 0.785E-20 0.327E-03
        84.381127      193.194324      395.657210    13     0     0     0     4   3.660 0.392E-32 0.785E-32 0.274E-04
       156.542273      150.372366      189.882206     9     0     0     0     5   3.240 0.392E-20 0.785E-20 0.327E-03
        84.374333       51.470551      299.254201     9     0     0     0     6   3.240 0.392E-20 0.785E-20 0.327E-03
       105.636755       96.246122       77.162972    12     0     0     0     1   3.570 0.392E-29 0.785E-29 0.457E-04
        50.483664       55.314263      342.001508    11     0     0     0     2   3.470 0.392E-26 0.785E-26 0.809E-04
       163.811121       40.794576      360.037234    10     0     0     0     8   3.360 0.392E-23 0.785E-23 0.154E-03
       198.239142      115.858615      266.061114    15     0     0     0     5   3.840 0.392E-38 0.785E-38 0.115E-04
       146.236378       51.153470       93.616908     6     0     0     0     7   2.830 0.392E-11 0.785E-11 0.650E-01
       131.526284      116.134378      460.222683    12     0     0     0     3   3.570 0.392E-29 0.785E-29 0.457E-04
       152.072785       68.217921      618.151799    21     0     0     0     7   4.300 0.392E-56 0.785E-56 0.181E-05
        27.083587       16.609617      372.239203     9     0     0     0     4   3.240 0.392E-20 0.785E-20 0.327E-03
       159.053500       69.830128       31.437147     9     0     0     0     3   3.240 0.392E-20 0.785E-20 0.327E-03
       116.469202       70.550058      668.714295    10     0     0     0     5   3.360 0.392E-23 0.785E-23 0.154E-03
        33.912434      189.938269      289.534257     6     0     0     0     2   2.830 0.392E-11 0.785E-11 0.650E-01
       165.045863       57.834097       91.673459    12     0     0     0     2   3.570 0.392E-29 0.785E-29 0.457E-04
       116.604572       58.189456      100.495549    11     0     0     0     4   3.470 0.392E-26 0.785E-26 0.809E-04
        79.332676       17.619628      338.120968    15     0     0     0     7   3.840 0.392E-38 0.785E-38 0.115E-04
       104.009357      127.993361       46.930400    13     0     0     0     3   3.660 0.392E-32 0.785E-32 0.274E-04
        31.156131        8.792449     2828.121274     1     0     0     0     2   1.560 0.392E+04 0.785E+04 0.000E+00
        40.104129      152.146018      746.090082    21     0     0     0     2   4.300 0.392E-56 0.785E-56 0.181E-05
       181.769494       30.124180      287.399081    16     0     0     0     2   3.930 0.392E-41 0.785E-41 0.796E-05
       153.993862      105.987717      465.100181    17     0     0     0     1   4.010 0.392E-44 0.785E-44 0.565E-05
        61.578788       64.477342      107.479799    19     0     0     0     7   4.160 0.392E-50 0.785E-50 0.307E-05
       158.271685       78.418617      415.260031    20     0     0     0     4   4.230 0.392E-53 0.785E-53 0.235E-05
       190.684614      172.435448      609.646305    15     0     0     0     1   3.840 0.392E-38 0.785E-38 0.115E-04
         7.229984      105.540575       86.033640    14     0     0     0     6   3.760 0.392E-35 0.785E-35 0.174E-04
       189.625262       48.658551       51.156701    14     0     0     0     8   3.760 0.392E-35 0.785E-35 0.174E-04
        47.815967       75.836501      316.915706     9     0     0     0     5   3.240 0.392E-20 0.785E-20 0.327E-03
       120.987692       93.228463      419.160634    12     0     0     0     7   3.570 0.392E-29 0.785E-29 0.457E-04
        69.915281       31.162092      407.321537    11     0     0     0     2   3.470 0.392E-26 0.785E-26 0.809E-04
       198.706249       28.854689      618.456514    26     0     0     0     5   4.620 0.392E-71 0.785E-71 0.633E-06
       124.121270       61.993981      212.204042    14     0     0     0     3   3.760 0.392E-35 0.785E-35 0.174E-04
        11.897631       96.102907      270.102150    14     0     0     0     7   3.760 0.392E-35 0.785E-35 0.174E-04
       121.235379       77.071940      395.284113    16     0     0     0     7   3.930 0.392E-41 0.785E-41 0.796E-05
       114.761103      101.063241       80.083514     9     0     0     0     7   3.240 0.392E-20 0.785E-20 0.327E-03
       167.800373      167.717694       27.241053    11     0     0     0     4   3.470 0.392E-26 0.785E-26 0.809E-04
       195.704260       36.537174      130.007787     9     0     0     0     4   3.240 0.392E-20 0.785E-20 0.327E-03
       172.182383      118.221977      243.274473     6     0     0     0     2   2.830 0.392E-11 0.785E-11 0.650E-01
       132.133583       35.970244      458.465231    13     0     0     0     1   3.660 0.392E-32 0.785E-32 0.274E-04
       195.175145       78.858377       17.046681     9     0     0     0     3   3.240 0.392E-20 0.785E-20 0.327E-03
        64.180972       44.447523       27.445271    13     0     0     0     5   3.660 0.392E-32 0.785E-32 0.274E-04
       180.928504       22.893776      498.095555    14     0     0     0     1   3.760 0.392E-35 0.785E-35 0.174E-04
       168.245356      125.321838       79.504564     9     0     0     0     5   3.240 0.392E-20 0.785E-20 0.327E-03
       171.778902       42.118426      844.098461    12     0     0     0     1   3.570 0.392E-29 0.785E-29 0.457E-04
       140.199234        4.084596      237.410045    11     0     0     0     6   3.470 0.392E-26 0.785E-26 0.809E-04
        14.620965       42.030617       75.171912    17     0     0     0     4   4.010 0.392E-44 0.785E-44 0.565E-05
       158.428169       75.661811      106.839550    15     0     0     0     1   3.840 0.392E-38 0.785E-38 0.115E-04
         9.364800       29.992474      372.474306    13     0     0     0     7   3.660 0.392E-32 0.785E-32 0.274E-04
       176.580343       75.870780     2909.051348     1     0     0     0     6   1.560 0.392E+04 0.785E+04 0.000E+00
       182.536515      123.660241      154.057776    12     0     0     0     5   3.570 0.392E-29 0.785E-29 0.457E-04
        85.330429       52.827798      649.399830    23     0     0     0     3   4.430 0.392E-62 0.785E-62 0.114E-05
       116.105942        4.551717      458.572817     9     0     0     0     5   3.240 0.392E-20 0.785E-20 0.327E-03
        49.178872      199.924159      324.191105     9     0     0     0     2   3.240 0.392E-20 0.785E-20 0.327E-03
       196.855819      130.746666      151.344618    13     0     0     0     3   3.660 0.392E-32 0.785E-32 0.274E-04
       181.805046       85.495823      774.041822    26     0     0     0     4   4.620 0.392E-71 0.785E-71 0.633E-06
       187.933725      131.001859      288.446302    14     0     0     0     5   3.760 0.392E-35 0.785E-35 0.174E-04
        56.656369      154.011464      815.380394    13     0     0     0     7   3.660 0.392E-32 0.785E-32 0.274E-04
        95.486151       81.762349      370.799259    16     0     0     0     1   3.930 0.392E-41 0.785E-41 0.796E-05
       143.712654       45.004169     1819.903611     1     0     0     0     1   1.560 0.392E+04 0.785E+04 0.000E+00
       154.326464       58.454915      530.595148    13     0     0     0     5   3.660 0.392E-32 0.785E-32 0.274E-04
        86.285633      164.519133      163.374767    14     0     0     0     3   3.760 0.392E-35 0.785E-35 0.174E-04
       135.396812       97.784253      111.234755    13     0     0     0     1   3.660 0.392E-32 0.785E-32 0.274E-04
        43.347867      174.956552      484.157785    23     0     0     0     7   4.430 0.392E-62 0.785E-62 0.114E-05
       111.737375      190.629376      341.324981    10     0     0     0     8   3.360 0.392E-23 0.785E-23 0.154E-03
        63.514784        9.564383      426.956287     9     0     0     0     3   3.240 0.392E-20 0.785E-20 0.327E-03
       187.804135       88.098847      320.517775    12     0     0     0     7   3.570 0.392E-29 0.785E-29 0.457E-04
       101.054905       65.117864      361.370915     9     0     0     0     5   3.240 0.392E-20 0.785E-20 0.327E-03
        70.608522       10.761490      150.477961     6     0     0     0     3   2.830 0.392E-11 0.785E-11 0.650E-01
       148.646724       11.381769      118.995798    10     0     0     0     6   3.360 0.392E-23 0.785E-23 0.154E-03
       183.831171       88.482212       66.560071    11     0     0     0     7   3.470 0.392E-26 0.785E-26 0.809E-04
       163.759382      194.260116      700.347634    26     0     0     0     6   4.620 0.392E-71 0.785E-71 0.633E-06
        91.555690      168.567916       66.232380    16     0     0     0     7   3.930 0.392E-41 0.785E-41 0.796E-05
        91.242323      103.185768      131.290292    10     0     0     0     6   3.360 0.392E-23 0.785E-23 0.154E-03
        69.357016       10.862433      204.576291    20     0     0     0     4   4.230 0.392E-53 0.785E-53 0.235E-05
        29.144327       51.612086      654.601244    14     0     0     0     8   3.760 0.392E-35 0.785E-35 0.174E-04
        36.360304       69.880422      158.509075    10     0     0     0     1   3.360 0.392E-23 0.785E-23 0.154E-03
       122.118197       40.201354      135.904517    18     0     0     0     5   4.080 0.392E-47 0.785E-47 0.412E-05
        14.297527      191.558534      818.868754    16     0     0     0     5   3.930 0.392E-41 0.785E-41 0.796E-05
        86.620927      153.975224      121.417730    11     0     0     0     6   3.470 0.392E-26 0.785E-26 0.809E-04
       163.376636       42.910705     1575.807937     1     0     0     0     3   1.560 0.392E+04 0.785E+04 0.000E+00
       132.145149       38.579207       49.018579    16     0     0     0     5   3.930 0.392E-41 0.785E-41 0.796E-05
        44.505162       82.595695      853.485457    20     0     0     0     5   4.230 0.392E-53 0.785E-53 0.235E-05
       198.452540        6.519406      681.277720    24     0     0     0     2   4.500 0.392E-65 0.785E-65 0.930E-06
       153.394634      110.882309      235.431680     9     0     0     0     5   3.240 0.392E-20 0.785E-20 0.327E-03
       150.734745       44.339680      539.575542    12     0     0     0     8   3.570 0.392E-29 0.785E-29 0.457E-04
        48.355277      136.420441      504.803542    20     0     0     0     5   4.230 0.392E-53 0.785E-53 0.235E-05
       161.874417      155.627085      536.595467    24     0     0     0     1   4.500 0.392E-65 0.785E-65 0.930E-06
       117.231986       93.385349     2451.412273     1     0     0     0     1   1.560 0.392E+04 0.785E+04 0.000E+00
       168.949303      179.557096      459.462520    12     0     0     0     7   3.570 0.392E-29 0.785E-29 0.457E-04
       134.770674       31.589511      209.956311    14     0     0     0     3   3.760 0.392E-35 0.785E-35 0.174E-04
        24.031469       58.631028      387.606556     9     0     0     0     1   3.240 0.392E-20 0.785E-20 0.327E-03
       175.762730      198.449141      114.120261    15     0     0     0     5   3.840 0.392E-38 0.785E-38 0.115E-04
       104.256922      191.293224      419.995838    18     0     0     0     4   4.080 0.392E-47 0.785E-47 0.412E-05
       154.114390      184.525554       75.340852    13     0     0     0     1   3.660 0.392E-32 0.785E-32 0.274E-04
       134.691756       73.108936      514.584422    20     0     0     0     6   4.230 0.392E-53 0.785E-53 0.235E-05
       190.743411       81.819020     1275.722586     1     0     0     0     8   1.560 0.392E+04 0.785E+04 0.000E+00
        51.053699       95.080533      590.963479    27     0     0     0     4   4.680 0.392E-74 0.785E-74 0.530E-06
       163.967867      116.823539       47.880631    12     0     0     0     5   3.570 0.392E-29 0.785E-29 0.457E-04
       188.252808      186.202091      428.363107     8     0     0     0     8   3.120 0.392E-17 0.785E-17 0.868E-01
       106.193332      145.382439      376.045730    12     0     0     0     4   3.570 0.392E-29 0.785E-29 0.457E-04
        59.843688      135.738987       32.455549     6     0     0     0     5   2.830 0.392E-11 0.785E-11 0.650E-01
        16.180431      107.774685     2902.161377     1     0     0     0     3   1.560 0.392E+04 0.785E+04 0.000E+00
       119.192460       48.680417      360.462956    16     0     0     0     6   3.930 0.392E-41 0.785E-41 0.796E-05
       147.466934      155.752044      174.338029    11     0     0     0     7   3.470 0.392E-26 0.785E-26 0.809E-04
        76.550435      126.419943      222.694085    18     0     0     0     6   4.080 0.392E-47 0.785E-47 0.412E-05
        20.352017       86.342668      700.363096    13     0     0     0     2   3.660 0.392E-32 0.785E-32 0.274E-04
        74.079066      112.076213     2540.006562     1     0     0     0     4   1.560 0.392E+04 0.785E+04 0.000E+00
        20.166810      162.986807      558.626618    11     0     0     0     6   3.470 0.392E-26 0.785E-26 0.809E-04
        57.255151       95.695241       70.718439    11     0     0     0     6   3.470 0.392E-26 0.785E-26 0.809E-04
         7.829681       20.663687     2511.301457     1     0     0     0     3   1.560 0.392E+04 0.785E+04 0.000E+00
        99.730627      168.973115      202.096107    14     0     0     0     5   3.760 0.392E-35 0.785E-35 0.174E-04
       115.962957      192.252901      202.327344    17     0     0     0     4   4.010 0.392E-44 0.785E-44 0.565E-05
        53.292738      167.159258      342.525517     6     0     0     0     5   2.830 0.392E-11 0.785E-11 0.650E-01
       175.778498      133.182944     3285.294032     1     0     0     0     5   1.560 0.392E+04 0.785E+04 0.000E+00
        37.395648       99.975636      587.599734    12     0     0     0     6   3.570 0.392E-29 0.785E-29 0.457E-04
       192.681945       49.246727       64.439787    14     0     0     0     4   3.760 0.392E-35 0.785E-35 0.174E-04
        98.397389      180.574908      491.148852    18     0     0     0     7   4.080 0.392E-47 0.785E-47 0.412E-05
       161.858857      157.536919      646.483439    26     0     0     0     1   4.620 0.392E-71 0.785E-71 0.633E-06
         6.634799       20.574716      319.401105    14     0     0     0     8   3.760 0.392E-35 0.785E-35 0.174E-04
        95.066497       38.799694       46.183493    15     0     0     0     7   3.840 0.392E-38 0.785E-38 0.115E-04
       178.642297      131.002360      373.665615    11     0     0     0     3   3.470 0.392E-26 0.785E-26 0.809E-04
        85.775693       80.531238      160.166091     9     0     0     0     1   3.240 0.392E-20 0.785E-20 0.327E-03
       105.430209      157.253403      351.959250    12     0     0     0     7   3.570 0.392E-29 0.785E-29 0.457E-04
       185.248997       49.818083      739.747065    20     0     0     0     6   4.230 0.392E-53 0.785E-53 0.235E-05
        33.497007      128.156824      806.789697    28     0     0     0     8   4.730 0.392E-77 0.785E-77 0.447E-06
        54.975127       27.033315       91.402026    14     0     0     0     2   3.760 0.392E-35 0.785E-35 0.174E-04
        93.024411      139.894656      625.214478    18     0     0     0     6   4.080 0.392E-47 0.785E-47 0.412E-05
        52.189601       96.775709      434.766350    15     0     0     0     5   3.840 0.392E-38 0.785E-38 0.115E-04
       140.133149      119.449695      724.911056    25     0     0     0     7   4.560 0.392E-68 0.785E-68 0.761E-06
         4.088095      135.727530      559.806648    22     0     0     0     5   4.370 0.392E-59 0.785E-59 0.143E-05
       107.280029       69.512174      796.301420    21     0     0     0     8   4.300 0.392E-56 0.785E-56 0.181E-05
        59.832135      196.933926      405.922872    17     0     0     0     2   4.010 0.392E-44 0.785E-44 0.565E-05
         7.379329      175.715167      457.081692    19     0     0     0     5   4.160 0.392E-50 0.785E-50 0.307E-05
        44.378969       36.664971      217.214986    10     0     0     0     5   3.360 0.392E-23 0.785E-23 0.154E-03
         8.988632      108.286100      307.568735    10     0     0     0     3   3.360 0.392E-23 0.785E-23 0.154E-03
         6.895933       11.448693     1805.818221     1     0     0     0     2   1.560 0.392E+04 0.785E+04 0.000E+00
       199.498014      176.036191      779.627938    12     0     0     0     4   3.570 0.392E-29 0.785E-29 0.457E-04
         9.968392      150.849465      389.379456    15     0     0     0     6   3.840 0.392E-38 0.785E-38 0.115E-04
       156.472846       95.200482       37.764033    11     0     0     0     1   3.470 0.392E-26 0.785E-26 0.809E-04
       122.086562      186.455310       87.899642    11     0     0     0     7   3.470 0.392E-26 0.785E-26 0.809E-04
        20.229280      166.231161       62.174000    13     0     0     0     5   3.660 0.392E-32 0.785E-32 0.274E-04
       139.620825      159.871599      387.402151     9     0     0     0     3   3.240 0.392E-20 0.785E-20 0.327E-03
       141.935929      191.118007       42.162103    17     0     0     0     5   4.010 0.392E-44 0.785E-44 0.565E-05
       193.909068       75.638365      374.786519     6     0     0     0     4   2.830 0.392E-11 0.785E-11 0.650E-01
       195.050862      195.412728      152.635673    13     0     0     0     6   3.660 0.392E-32 0.785E-32 0.274E-04
       184.777017      157.380622      320.413897    13     0     0     0     2   3.660 0.392E-32 0.785E-32 0.274E-04
        46.419925       25.743459      461.306305    10     0     0     0     5   3.360 0.392E-23 0.785E-23 0.154E-03
       146.643519      181.027597      270.835246    13     0     0     0     5   3.660 0.392E-32 0.785E-32 0.274E-04
        84.213792      164.529367      768.448971    24     0     0     0     1   4.500 0.392E-65 0.785E-65 0.930E-06
       164.291183       48.134516      252.273902     6     0     0     0     2   2.830 0.392E-11 0.785E-11 0.650E-01
       157.066830       30.971370      286.115563    11     0     0     0     6   3.470 0.392E-26 0.785E-26 0.809E-04
       121.818578       42.282754      474.555443    11     0     0     0     5   3.470 0.392E-26 0.785E-26 0.809E-04
       106.173340      101.648520       59.528068     6     0     0     0     8   2.830 0.392E-11 0.785E-11 0.650E-01
        29.626799        2.757006      960.370906    35     0     0     0     8   5.100 0.392E-98 0.785E-98 0.168E-06
        58.163217        1.894471      278.330750     7     0     0     0     1   2.980 0.392E-14 0.785E-14 0.810E+00
        81.740453       40.801116      619.303770    11     0     0     0     3   3.470 0.392E-26 0.785E-26 0.809E-04
        88.395426      143.893923       88.644976    13     0     0     0     8   3.660 0.392E-32 0.785E-32 0.274E-04
       117.314156       26.131784      435.918395    14     0     0     0     2   3.760 0.392E-35 0.785E-35 0.174E-04
        87.289589       64.997570      464.838703    14     0     0     0     2   3.760 0.392E-35 0.785E-35 0.174E-04
        17.617203       88.452229     2858.727205     1     0     0     0     6   1.560 0.392E+04 0.785E+04 0.000E+00
        65.273638       47.718646       48.153904    12     0     0     0     7   3.570 0.392E-29 0.785E-29 0.457E-04
        39.496744       34.525876      130.085144    22     0     0     0     2   4.370 0.392E-59 0.785E-59 0.143E-05
        47.354822       84.449048      158.471204     9     0     0     0     2   3.240 0.392E-20 0.785E-20 0.327E-03
        82.334262      179.262108     2703.580351     1     0     0     0     8   1.560 0.392E+04 0.785E+04 0.000E+00
       191.031155      189.679302      442.295232    14     0     0     0     8   3.760 0.392E-35 0.785E-35 0.174E-04
       174.743583      182.247454      217.525098    12     0     0     0     6   3.570 0.392E-29 0.785E-29 0.457E-04
        62.558822      142.197521      174.597907    18     0     0     0     2   4.080 0.392E-47 0.785E-47 0.412E-05
       199.163015      173.442876      465.234410    12     0     0     0     8   3.570 0.392E-29 0.785E-29 0.457E-04
        20.407679       15.201958      267.020132    11     0     0     0     7   3.470 0.392E-26 0.785E-26 0.809E-04
       173.919202      110.405202      116.268054    12     0     0     0     8   3.570 0.392E-29 0.785E-29 0.457E-04
       155.663177       89.864290       64.393650    13     0     0     0     8   3.660 0.392E-32 0.785E-32 0.274E-04
       113.094045      198.773689       75.743958    21     0     0     0     5   4.300 0.392E-56 0.785E-56 0.181E-05
        99.879317       42.650675      552.217052    18     0     0     0     2   4.080 0.392E-47 0.785E-47 0.412E-05
       129.392222       64.273722     4117.883664     1     0     0     0     7   1.560 0.392E+04 0.785E+04 0.000E+00
       164.723706       15.579299     2709.306007     1     0     0     0     4   1.560 0.392E+04 0.785E+04 0.000E+00
        99.659941       15.179448      103.432762    11     0     0     0     3   3.470 0.392E-26 0.785E-26 0.809E-04
        90.777168       75.842761      535.626477    15     0     0     0     8   3.840 0.392E-38 0.785E-38 0.115E-04
       125.251883       48.286411      660.119129    27     0     0     0     3   4.680 0.392E-74 0.785E-74 0.530E-06
        29.599141      136.053419      133.754917     6     0     0     0     4   2.830 0.392E-11 0.785E-11 0.650E-01
       101.630774      133.600193      274.102567    11     0     0     0     7   3.470 0.392E-26 0.785E-26 0.809E-04
       116.093904       28.390559       28.726266     9     0     0     0     6   3.240 0.392E-20 0.785E-20 0.327E-03
        50.457137      182.536460      871.301375    36     0     0     0     1   5.150 0.392-101 0.785-101 0.148E-06
       120.531350       69.535966      495.664905     9     0     0     0     7   3.240 0.392E-20 0.785E-20 0.327E-03
       151.817157       38.794468      917.552761    37     0     0     0     7   5.190 0.392-104 0.785-104 0.132E-06
       126.937581       54.191601      341.605340    13     0     0     0     6   3.660 0.392E-32 0.785E-32 0.274E-04
       181.448405      113.835849     2728.002735     1     0     0     0     1   1.560 0.392E+04 0.785E+04 0.000E+00
       185.744740       83.481515       99.528486    13     0     0     0     8   3.660 0.392E-32 0.785E-32 0.274E-04
        85.279327      110.862333      536.933150    13     0     0     0     7   3.660 0.392E-32 0.785E-32 0.274E-04
        17.214158      161.105156      239.248219    10     0     0     0     7   3.360 0.392E-23 0.785E-23 0.154E-03
       144.497725       61.239522      321.732739    16     0     0     0     3   3.930 0.392E-41 0.785E-41 0.796E-05
        23.814863       11.969914       94.144951    17     0     0     0     6   4.010 0.392E-44 0.785E-44 0.565E-05
       186.506977       27.125986      560.284272    23     0     0     0     6   4.430 0.392E-62 0.785E-62 0.114E-05
        32.888761      167.182212      316.647607    12     0     0     0     8   3.570 0.392E-29 0.785E-29 0.457E-04
        42.814085       74.145769     1861.953529     1     0     0     0     8   1.560 0.392E+04 0.785E+04 0.000E+00
       177.598676       23.721280       26.482010    15     0     0     0     1   3.840 0.392E-38 0.785E-38 0.115E-04
        43.749384      115.832280      124.407207    14     0     0     0     4   3.760 0.392E-35 0.785E-35 0.174E-04
        21.305989      171.187100      143.184825    14     0     0     0     2   3.760 0.392E-35 0.785E-35 0.174E-04
         2.665498       70.014401     1018.905058    55     0     0     0     1   5.930 0.392-158 0.785-158 0.289E-07
       155.472320      182.582328      629.701769    20     0     0     0     1   4.230 0.392E-53 0.785E-53 0.235E-05
       119.629771       98.013235       54.351773    10     0     0     0     4   3.360 0.392E-23 0.785E-23 0.154E-03
        80.422664      138.339351      756.990888    16     0     0     0     6   3.930 0.392E-41 0.785E-41 0.796E-05
        45.515830        1.212159     3960.174514     1     0     0     0     3   1.560 0.392E+04 0.785E+04 0.000E+00
        44.320441       51.839916      773.015850    24     0     0     0     2   4.500 0.392E-65 0.785E-65 0.930E-06
        22.258180       97.809548      340.450692    13     0     0     0     4   3.660 0.392E-32 0.785E-32 0.274E-04
       194.850834       39.629498      213.897658    11     0     0     0     6   3.470 0.392E-26 0.785E-26 0.809E-04
        32.192202      118.320390      682.922112    13     0     0     0     7   3.660 0.392E-32 0.785E-32 0.274E-04
       144.341793      127.742978      244.927566     9     0     0     0     5   3.240 0.392E-20 0.785E-20 0.327E-03
        57.617271      124.426486       70.070067    14     0     0     0     4   3.760 0.392E-35 0.785E-35 0.174E-04
       169.424708      191.094120       58.810581    10     0     0     0     7   3.360 0.392E-23 0.785E-23 0.154E-03
       196.406185       81.005835      556.198413    15     0     0     0     3   3.840 0.392E-38 0.785E-38 0.115E-04
       122.630115       38.342776      783.862935    26     0     0     0     6   4.620 0.392E-71 0.785E-71 0.633E-06
       100.360370       41.285085      149.536509    10     0     0     0     8   3.360 0.392E-23 0.785E-23 0.154E-03
       148.202653      198.443104       84.509234    12     0     0     0     6   3.570 0.392E-29 0.785E-29 0.457E-04
       168.950532       25.846781      425.365814    12     0     0     0     3   3.570 0.392E-29 0.785E-29 0.457E-04
       122.847730      134.822810       83.015571    11     0     0     0     6   3.470 0.392E-26 0.785E-26 0.809E-04
        74.565187      187.024369      576.744258    22     0     0     0     8   4.370 0.392E-59 0.785E-59 0.143E-05
       167.100723      177.618532      408.587793    12     0     0     0     8   3.570 0.392E-29 0.785E-29 0.457E-04
        70.727060        1.480314      126.412117    14     0     0     0     2   3.760 0.392E-35 0.785E-35 0.174E-04
        20.533618       83.983208       73.034931    10     0     0     0     1   3.360 0.392E-23 0.785E-23 0.154E-03
       149.523570       24.503941      234.071743    10     0     0     0     1   3.360 0.392E-23 0.785E-23 0.154E-03
         9.955328      110.018273      161.770994    13     0     0     0     5   3.660 0.392E-32 0.785E-32 0.274E-04