ITEM: TIMESTEP
0
ITEM: NUMBER OF ATOMS
         398
ITEM: BOX BOUNDS pp pp pp
  0.0000000E+00   200.000000000000     
  0.0000000E+00   200.000000000000     
  0.0000000E+00   5000.00000000000     
ITEM: ATOMS x y z f1 f2 f3 f4 orient radius rate_mig rate_rot rate_emit
        42.085409       15.425974      513.798196    13     0     0     0     6   3.660 0.482E-32 0.965E-32 0.417E-04
       156.833165       82.166430      500.425169    12     0     0     0     2   3.570 0.482E-29 0.965E-29 0.693E-04
       163.726011      146.273555      973.559896    53     0     0     0     1   5.850 0.482-152 0.965-152 0.540E-07
         5.283744       14.817722       22.158688    11     0     0     0     3   3.470 0.482E-26 0.965E-26 0.122E-03
        87.302005      152.429467       92.463803    11     0     0     0     2   3.470 0.482E-26 0.965E-26 0.122E-03
       187.733717       88.310863      320.627182    13     0     0     0     5   3.660 0.482E-32 0.965E-32 0.417E-04
         3.666750        8.818418       94.597439    26     0     0     0     7   4.620 0.482E-71 0.965E-71 0.101E-05
        30.938806      136.053419      133.470303     6     0     0     0     2   2.830 0.482E-11 0.965E-11 0.911E-01
        79.880707      149.743571      424.642667    12     0     0     0     7   3.570 0.482E-29 0.965E-29 0.693E-04
       162.283973       26.201614      264.452478    14     0     0     0     5   3.760 0.482E-35 0.965E-35 0.267E-04
        18.225410       95.904575      327.821135    18     0     0     0     7   4.080 0.482E-47 0.965E-47 0.640E-05
        72.932093      131.815964      253.045299     6     0     0     0     6   2.830 0.482E-11 0.965E-11 0.911E-01
       129.655182       26.490380      103.759805    10     0     0     0     3   3.360 0.482E-23 0.965E-23 0.230E-03
       138.248213       95.792369      529.222476    14     0     0     0     2   3.760 0.482E-35 0.965E-35 0.267E-04
        49.024630      199.668435      324.484690    10     0     0     0     5   3.360 0.482E-23 0.965E-23 0.230E-03
       126.136301       70.241011       59.384681    19     0     0     0     8   4.160 0.482E-50 0.965E-50 0.479E-05
       120.053956       52.522876      703.534843    22     0     0     0     2   4.370 0.482E-59 0.965E-59 0.225E-05
        79.016203        3.171207      685.268528    21     0     0     0     7   4.300 0.482E-56 0.965E-56 0.284E-05
        94.656289      139.871803      191.245201    24     0     0     0     3   4.500 0.482E-65 0.965E-65 0.147E-05
       133.106830      128.304126      873.732651    19     0     0     0     5   4.160 0.482E-50 0.965E-50 0.479E-05
        82.658531      117.489808      437.260206    13     0     0     0     2   3.660 0.482E-32 0.965E-32 0.417E-04
        71.636003       65.352601      431.119106    18     0     0     0     1   4.080 0.482E-47 0.965E-47 0.640E-05
        33.229912      114.915526      166.901534    14     0     0     0     5   3.760 0.482E-35 0.965E-35 0.267E-04
        53.686581       88.143623      695.932070    19     0     0     0     1   4.160 0.482E-50 0.965E-50 0.479E-05
        84.969792       81.641015      289.075696    15     0     0     0     1   3.840 0.482E-38 0.965E-38 0.177E-04
       101.497123      186.676557      221.039960    16     0     0     0     2   3.930 0.482E-41 0.965E-41 0.123E-04
        65.278437      172.288492      347.936590    19     0     0     0     4   4.160 0.482E-50 0.965E-50 0.479E-05
       188.252808      186.202091      428.363107     6     0     0     0     8   2.830 0.482E-11 0.965E-11 0.911E-01
       167.804063      167.421438       27.526469    12     0     0     0     4   3.570 0.482E-29 0.965E-29 0.693E-04
       133.901392      104.550800      300.260916     9     0     0     0     6   3.240 0.482E-20 0.965E-20 0.485E-03
        84.381127      193.194324      395.657210    13     0     0     0     4   3.660 0.482E-32 0.965E-32 0.417E-04
       156.542273      150.372366      189.882206     9     0     0     0     5   3.240 0.482E-20 0.965E-20 0.485E-03
        84.374333       51.470551      299.254201     9     0     0     0     6   3.240 0.482E-20 0.965E-20 0.485E-03
       105.636755       96.246122       77.162972    12     0     0     0     1   3.570 0.482E-29 0.965E-29 0.693E-04
        50.483664       55.314263      342.001508    11     0     0     0     2   3.470 0.482E-26 0.965E-26 0.122E-03
        53.652553      107.543269      400.956195    13     0     0     0     4   3.660 0.482E-32 0.965E-32 0.417E-04
       172.274782       56.192619     2859.422981     1     0     0     0     4   1.560 0.482E+04 0.965E+04 0.000E+00
       146.236378       51.153470       93.616908     6     0     0     0     7   2.830 0.482E-11 0.965E-11 0.911E-01
       131.526284      116.134378      460.222683    12     0     0     0     3   3.570 0.482E-29 0.965E-29 0.693E-04
       152.072785       68.217921      618.151799    21     0     0     0     7   4.300 0.482E-56 0.965E-56 0.284E-05
        27.083587       16.609617      372.239203     9     0     0     0     4   3.240 0.482E-20 0.965E-20 0.485E-03
       159.053500       69.830128       31.437147     9     0     0     0     3   3.240 0.482E-20 0.965E-20 0.485E-03
       116.469202       70.550058      668.714295    10     0     0     0     5   3.360 0.482E-23 0.965E-23 0.230E-03
       135.749043      132.636995     2712.781264     1     0     0     0     8   1.560 0.482E+04 0.965E+04 0.000E+00
       165.045863       57.834097       91.673459    12     0     0     0     2   3.570 0.482E-29 0.965E-29 0.693E-04
         9.010953      172.582931     2926.627378     1     0     0     0     5   1.560 0.482E+04 0.965E+04 0.000E+00
        79.332676       17.619628      338.120968    15     0     0     0     7   3.840 0.482E-38 0.965E-38 0.177E-04
       104.009357      127.993361       46.930400    13     0     0     0     3   3.660 0.482E-32 0.965E-32 0.417E-04
         9.634303      110.136984      161.905902    14     0     0     0     3   3.760 0.482E-35 0.965E-35 0.267E-04
        40.104129      152.146018      746.090082    21     0     0     0     2   4.300 0.482E-56 0.965E-56 0.284E-05
       181.769494       30.124180      287.399081    16     0     0     0     2   3.930 0.482E-41 0.965E-41 0.123E-04
       153.993862      105.987717      465.100181    17     0     0     0     1   4.010 0.482E-44 0.965E-44 0.875E-05
        61.578788       64.477342      107.479799    19     0     0     0     7   4.160 0.482E-50 0.965E-50 0.479E-05
       158.271685       78.418617      415.260031    20     0     0     0     4   4.230 0.482E-53 0.965E-53 0.367E-05
       190.684614      172.435448      609.646305    15     0     0     0     1   3.840 0.482E-38 0.965E-38 0.177E-04
         7.229984      105.540575       86.033640    14     0     0     0     6   3.760 0.482E-35 0.965E-35 0.267E-04
       189.625262       48.658551       51.156701    14     0     0     0     8   3.760 0.482E-35 0.965E-35 0.267E-04
        47.815967       75.836501      316.915706     9     0     0     0     5   3.240 0.482E-20 0.965E-20 0.485E-03
       120.987692       93.228463      419.160634    12     0     0     0     7   3.570 0.482E-29 0.965E-29 0.693E-04
        69.915281       31.162092      407.321537    11     0     0     0     2   3.470 0.482E-26 0.965E-26 0.122E-03
       198.706249       28.854689      618.456514    26     0     0     0     5   4.620 0.482E-71 0.965E-71 0.101E-05
       124.121270       61.993981      212.204042    14     0     0     0     3   3.760 0.482E-35 0.965E-35 0.267E-04
        11.897631       96.102907      270.102150    14     0     0     0     7   3.760 0.482E-35 0.965E-35 0.267E-04
       121.235379       77.071940      395.284113    16     0     0     0     7   3.930 0.482E-41 0.965E-41 0.123E-04
       114.761103      101.063241       80.083514     9     0     0     0     7   3.240 0.482E-20 0.965E-20 0.485E-03
        74.651841       10.524273      640.671566    20     0     0     0     6   4.230 0.482E-53 0.965E-53 0.367E-05
       195.704260       36.537174      130.007787     9     0     0     0     4   3.240 0.482E-20 0.965E-20 0.485E-03
       169.743557      191.237218       58.533141    11     0     0     0     3   3.470 0.482E-26 0.965E-26 0.122E-03
       132.133583       35.970244      458.465231    13     0     0     0     1   3.660 0.482E-32 0.965E-32 0.417E-04
       195.175145       78.858377       17.046681     9     0     0     0     3   3.240 0.482E-20 0.965E-20 0.485E-03
        64.180972       44.447523       27.445271    13     0     0     0     5   3.660 0.482E-32 0.965E-32 0.417E-04
       180.928504       22.893776      498.095555    14     0     0     0     1   3.760 0.482E-35 0.965E-35 0.267E-04
       131.521918      157.028185     3266.050879     1     0     0     0     3   1.560 0.482E+04 0.965E+04 0.000E+00
       171.778902       42.118426      844.098461    12     0     0     0     1   3.570 0.482E-29 0.965E-29 0.693E-04
       197.333454      139.623072      189.071858    13     0     0     0     7   3.660 0.482E-32 0.965E-32 0.417E-04
        14.620965       42.030617       75.171912    17     0     0     0     4   4.010 0.482E-44 0.965E-44 0.875E-05
       158.428169       75.661811      106.839550    15     0     0     0     1   3.840 0.482E-38 0.965E-38 0.177E-04
         9.364800       29.992474      372.474306    13     0     0     0     7   3.660 0.482E-32 0.965E-32 0.417E-04
        64.474100       51.195289     2449.341181     1     0     0     0     3   1.560 0.482E+04 0.965E+04 0.000E+00
       182.536515      123.660241      154.057776    12     0     0     0     5   3.570 0.482E-29 0.965E-29 0.693E-04
        85.330429       52.827798      649.399830    23     0     0     0     3   4.430 0.482E-62 0.965E-62 0.180E-05
       116.105942        4.551717      458.572817     9     0     0     0     5   3.240 0.482E-20 0.965E-20 0.485E-03
       127.055460       70.250667     1583.836393     1     0     0     0     4   1.560 0.482E+04 0.965E+04 0.000E+00
       196.855819      130.746666      151.344618    13     0     0     0     3   3.660 0.482E-32 0.965E-32 0.417E-04
       181.805046       85.495823      774.041822    26     0     0     0     4   4.620 0.482E-71 0.965E-71 0.101E-05
       187.933725      131.001859      288.446302    14     0     0     0     5   3.760 0.482E-35 0.965E-35 0.267E-04
        56.656369      154.011464      815.380394    13     0     0     0     7   3.660 0.482E-32 0.965E-32 0.417E-04
        95.486151       81.762349      370.799259    16     0     0     0     1   3.930 0.482E-41 0.965E-41 0.123E-04
       164.206383       40.723176      360.092754    11     0     0     0     2   3.470 0.482E-26 0.965E-26 0.122E-03
       154.326464       58.454915      530.595148    13     0     0     0     5   3.660 0.482E-32 0.965E-32 0.417E-04
        86.285633      164.519133      163.374767    14     0     0     0     3   3.760 0.482E-35 0.965E-35 0.267E-04
       135.396812       97.784253      111.234755    13     0     0     0     1   3.660 0.482E-32 0.965E-32 0.417E-04
        43.347867      174.956552      484.157785    23     0     0     0     7   4.430 0.482E-62 0.965E-62 0.180E-05
       111.737375      190.629376      341.324981    10     0     0     0     8   3.360 0.482E-23 0.965E-23 0.230E-03
        63.514784        9.564383      426.956287     9     0     0     0     3   3.240 0.482E-20 0.965E-20 0.485E-03
       151.520685      137.388220      277.040082     6     0     0     0     4   2.830 0.482E-11 0.965E-11 0.911E-01
       101.054905       65.117864      361.370915     9     0     0     0     5   3.240 0.482E-20 0.965E-20 0.485E-03
       195.143134      179.668325     2704.708852     1     0     0     0     7   1.560 0.482E+04 0.965E+04 0.000E+00
       148.646724       11.381769      118.995798    10     0     0     0     6   3.360 0.482E-23 0.965E-23 0.230E-03
       183.831171       88.482212       66.560071    11     0     0     0     7   3.470 0.482E-26 0.965E-26 0.122E-03
       163.759382      194.260116      700.347634    26     0     0     0     6   4.620 0.482E-71 0.965E-71 0.101E-05
        91.555690      168.567916       66.232380    16     0     0     0     7   3.930 0.482E-41 0.965E-41 0.123E-04
        91.242323      103.185768      131.290292    10     0     0     0     6   3.360 0.482E-23 0.965E-23 0.230E-03
        69.357016       10.862433      204.576291    20     0     0     0     4   4.230 0.482E-53 0.965E-53 0.367E-05
        29.144327       51.612086      654.601244    14     0     0     0     8   3.760 0.482E-35 0.965E-35 0.267E-04
        36.360304       69.880422      158.509075    10     0     0     0     1   3.360 0.482E-23 0.965E-23 0.230E-03
       122.118197       40.201354      135.904517    18     0     0     0     5   4.080 0.482E-47 0.965E-47 0.640E-05
        14.297527      191.558534      818.868754    16     0     0     0     5   3.930 0.482E-41 0.965E-41 0.123E-04
        86.620927      153.975224      121.417730    11     0     0     0     6   3.470 0.482E-26 0.965E-26 0.122E-03
        20.603426       68.295097      466.857276     9     0     0     0     3   3.240 0.482E-20 0.965E-20 0.485E-03
       132.145149       38.579207       49.018579    16     0     0     0     5   3.930 0.482E-41 0.965E-41 0.123E-04
        44.505162       82.595695      853.485457    20     0     0     0     5   4.230 0.482E-53 0.965E-53 0.367E-05
       198.452540        6.519406      681.277720    24     0     0     0     2   4.500 0.482E-65 0.965E-65 0.147E-05
       153.394634      110.882309      235.431680     9     0     0     0     5   3.240 0.482E-20 0.965E-20 0.485E-03
       150.734745       44.339680      539.575542    12     0     0     0     8   3.570 0.482E-29 0.965E-29 0.693E-04
        48.355277      136.420441      504.803542    20     0     0     0     5   4.230 0.482E-53 0.965E-53 0.367E-05
       161.874417      155.627085      536.595467    24     0     0     0     1   4.500 0.482E-65 0.965E-65 0.147E-05
        56.354326      130.979647      433.649923    12     0     0     0     1   3.570 0.482E-29 0.965E-29 0.693E-04
       168.949303      179.557096      459.462520    12     0     0     0     7   3.570 0.482E-29 0.965E-29 0.693E-04
       134.770674       31.589511      209.956311    14     0     0     0     3   3.760 0.482E-35 0.965E-35 0.267E-04
        24.031469       58.631028      387.606556     9     0     0     0     1   3.240 0.482E-20 0.965E-20 0.485E-03
       175.762730      198.449141      114.120261    15     0     0     0     5   3.840 0.482E-38 0.965E-38 0.177E-04
       104.256922      191.293224      419.995838    18     0     0     0     4   4.080 0.482E-47 0.965E-47 0.640E-05
       154.114390      184.525554       75.340852    13     0     0     0     1   3.660 0.482E-32 0.965E-32 0.417E-04
       134.691756       73.108936      514.584422    20     0     0     0     6   4.230 0.482E-53 0.965E-53 0.367E-05
       164.223090        1.007764      411.881316    10     0     0     0     3   3.360 0.482E-23 0.965E-23 0.230E-03
        51.053699       95.080533      590.963479    27     0     0     0     4   4.680 0.482E-74 0.965E-74 0.842E-06
       163.967867      116.823539       47.880631    12     0     0     0     5   3.570 0.482E-29 0.965E-29 0.693E-04
       181.974205      108.506137      256.301544    13     0     0     0     3   3.660 0.482E-32 0.965E-32 0.417E-04
       106.193332      145.382439      376.045730    12     0     0     0     4   3.570 0.482E-29 0.965E-29 0.693E-04
       194.773480      195.634046      152.692380    14     0     0     0     3   3.760 0.482E-35 0.965E-35 0.267E-04
        34.576286       34.266084     1468.876046     1     0     0     0     5   1.560 0.482E+04 0.965E+04 0.000E+00
       119.192460       48.680417      360.462956    16     0     0     0     6   3.930 0.482E-41 0.965E-41 0.123E-04
       147.466934      155.752044      174.338029    11     0     0     0     7   3.470 0.482E-26 0.965E-26 0.122E-03
        76.527287      126.424200      222.910498    19     0     0     0     8   4.160 0.482E-50 0.965E-50 0.479E-05
        20.352017       86.342668      700.363096    13     0     0     0     2   3.660 0.482E-32 0.965E-32 0.417E-04
        69.864099      197.632796     1927.740282     1     0     0     0     3   1.560 0.482E+04 0.965E+04 0.000E+00
        20.166810      162.986807      558.626618    11     0     0     0     6   3.470 0.482E-26 0.965E-26 0.122E-03
        57.255151       95.695241       70.718439    11     0     0     0     6   3.470 0.482E-26 0.965E-26 0.122E-03
       176.624572       73.410580     3857.576062     1     0     0     0     1   1.560 0.482E+04 0.965E+04 0.000E+00
        99.730627      168.973115      202.096107    14     0     0     0     5   3.760 0.482E-35 0.965E-35 0.267E-04
       115.962957      192.252901      202.327344    17     0     0     0     4   4.010 0.482E-44 0.965E-44 0.875E-05
        63.185449      190.598997      303.992223    12     0     0     0     7   3.570 0.482E-29 0.965E-29 0.693E-04
        73.437154        8.073423      165.760739    17     0     0     0     4   4.010 0.482E-44 0.965E-44 0.875E-05
        37.395648       99.975636      587.599734    12     0     0     0     6   3.570 0.482E-29 0.965E-29 0.693E-04
       192.681945       49.246727       64.439787    14     0     0     0     4   3.760 0.482E-35 0.965E-35 0.267E-04
        98.397389      180.574908      491.148852    18     0     0     0     7   4.080 0.482E-47 0.965E-47 0.640E-05
       161.858857      157.536919      646.483439    26     0     0     0     1   4.620 0.482E-71 0.965E-71 0.101E-05
        70.917383        1.350609      126.630506    15     0     0     0     8   3.840 0.482E-38 0.965E-38 0.177E-04
        95.066497       38.799694       46.183493    15     0     0     0     7   3.840 0.482E-38 0.965E-38 0.177E-04
       178.642297      131.002360      373.665615    11     0     0     0     3   3.470 0.482E-26 0.965E-26 0.122E-03
        85.775693       80.531238      160.166091     9     0     0     0     1   3.240 0.482E-20 0.965E-20 0.485E-03
       105.430209      157.253403      351.959250    12     0     0     0     7   3.570 0.482E-29 0.965E-29 0.693E-04
       185.248997       49.818083      739.747065    20     0     0     0     6   4.230 0.482E-53 0.965E-53 0.367E-05
        33.497007      128.156824      806.789697    28     0     0     0     8   4.730 0.482E-77 0.965E-77 0.712E-06
        54.975127       27.033315       91.402026    14     0     0     0     2   3.760 0.482E-35 0.965E-35 0.267E-04
        93.024411      139.894656      625.214478    18     0     0     0     6   4.080 0.482E-47 0.965E-47 0.640E-05
        52.189601       96.775709      434.766350    15     0     0     0     5   3.840 0.482E-38 0.965E-38 0.177E-04
       140.133149      119.449695      724.911056    25     0     0     0     7   4.560 0.482E-68 0.965E-68 0.121E-05
         4.088095      135.727530      559.806648    22     0     0     0     5   4.370 0.482E-59 0.965E-59 0.225E-05
       107.280029       69.512174      796.301420    21     0     0     0     8   4.300 0.482E-56 0.965E-56 0.284E-05
        59.832135      196.933926      405.922872    17     0     0     0     2   4.010 0.482E-44 0.965E-44 0.875E-05
         7.379329      175.715167      457.081692    19     0     0     0     5   4.160 0.482E-50 0.965E-50 0.479E-05
       108.004513       66.732991     3069.957864     1     0     0     0     5   1.560 0.482E+04 0.965E+04 0.000E+00
         8.988632      108.286100      307.568735    10     0     0     0     3   3.360 0.482E-23 0.965E-23 0.230E-03
        69.611690       37.808048     1652.673484     1     0     0     0     6   1.560 0.482E+04 0.965E+04 0.000E+00
       199.498014      176.036191      779.627938    12     0     0     0     4   3.570 0.482E-29 0.965E-29 0.693E-04
       135.337357      192.460307     2309.679778     1     0     0     0     7   1.560 0.482E+04 0.965E+04 0.000E+00
       156.472846       95.200482       37.764033    11     0     0     0     1   3.470 0.482E-26 0.965E-26 0.122E-03
       122.086562      186.455310       87.899642    11     0     0     0     7   3.470 0.482E-26 0.965E-26 0.122E-03
        20.229280      166.231161       62.174000    13     0     0     0     5   3.660 0.482E-32 0.965E-32 0.417E-04
       175.086510      182.299513      217.422868    13     0     0     0     4   3.660 0.482E-32 0.965E-32 0.417E-04
       115.774528       28.214533       28.464118    10     0     0     0     3   3.360 0.482E-23 0.965E-23 0.230E-03
       198.334699      116.062617      265.979083    16     0     0     0     2   3.930 0.482E-41 0.965E-41 0.123E-04
        41.728898      175.901129     3609.330572     1     0     0     0     3   1.560 0.482E+04 0.965E+04 0.000E+00
       184.777017      157.380622      320.413897    13     0     0     0     2   3.660 0.482E-32 0.965E-32 0.417E-04
        46.419925       25.743459      461.306305    10     0     0     0     5   3.360 0.482E-23 0.965E-23 0.230E-03
       146.643519      181.027597      270.835246    13     0     0     0     5   3.660 0.482E-32 0.965E-32 0.417E-04
        84.213792      164.529367      768.448971    24     0     0     0     1   4.500 0.482E-65 0.965E-65 0.147E-05
         9.727866      150.924602      389.484613    16     0     0     0     1   3.930 0.482E-41 0.965E-41 0.123E-04
       157.066830       30.971370      286.115563    11     0     0     0     6   3.470 0.482E-26 0.965E-26 0.122E-03
       121.818578       42.282754      474.555443    11     0     0     0     5   3.470 0.482E-26 0.965E-26 0.122E-03
       134.295371      139.322942      167.019906    11     0     0     0     2   3.470 0.482E-26 0.965E-26 0.122E-03
        95.850781      145.394749     3950.528243     1     0     0     0     2   1.560 0.482E+04 0.965E+04 0.000E+00
       100.978149       71.161611     1893.971517     1     0     0     0     3   1.560 0.482E+04 0.965E+04 0.000E+00
        81.740453       40.801116      619.303770    11     0     0     0     3   3.470 0.482E-26 0.965E-26 0.122E-03
       150.984009      152.146883      294.883476    12     0     0     0     6   3.570 0.482E-29 0.965E-29 0.693E-04
       117.314156       26.131784      435.918395    14     0     0     0     2   3.760 0.482E-35 0.965E-35 0.267E-04
        87.289589       64.997570      464.838703    14     0     0     0     2   3.760 0.482E-35 0.965E-35 0.267E-04
        88.719295      143.942841       88.497485    16     0     0     0     6   3.930 0.482E-41 0.965E-41 0.123E-04
        65.273638       47.718646       48.153904    12     0     0     0     7   3.570 0.482E-29 0.965E-29 0.693E-04
        39.496744       34.525876      130.085144    22     0     0     0     2   4.370 0.482E-59 0.965E-59 0.225E-05
        47.354822       84.449048      158.471204     9     0     0     0     2   3.240 0.482E-20 0.965E-20 0.485E-03
       187.513658      121.152475     2338.078904     1     0     0     0     7   1.560 0.482E+04 0.965E+04 0.000E+00
       191.031155      189.679302      442.295232    14     0     0     0     8   3.760 0.482E-35 0.965E-35 0.267E-04
       119.196073       97.917683       54.474586    12     0     0     0     7   3.570 0.482E-29 0.965E-29 0.693E-04
        18.525802      148.689859      337.037487    10     0     0     0     4   3.360 0.482E-23 0.965E-23 0.230E-03
       199.163015      173.442876      465.234410    12     0     0     0     8   3.570 0.482E-29 0.965E-29 0.693E-04
        20.042211       14.870251      266.685591    14     0     0     0     4   3.760 0.482E-35 0.965E-35 0.267E-04
       173.919202      110.405202      116.268054    12     0     0     0     8   3.570 0.482E-29 0.965E-29 0.693E-04
       155.663177       89.864290       64.393650    13     0     0     0     8   3.660 0.482E-32 0.965E-32 0.417E-04
       113.094045      198.773689       75.743958    21     0     0     0     5   4.300 0.482E-56 0.965E-56 0.284E-05
        99.879317       42.650675      552.217052    18     0     0     0     2   4.080 0.482E-47 0.965E-47 0.640E-05
       138.292099       87.620914     3946.965583     1     0     0     0     4   1.560 0.482E+04 0.965E+04 0.000E+00
       193.484995      122.597197     2922.063014     1     0     0     0     5   1.560 0.482E+04 0.965E+04 0.000E+00
        99.659941       15.179448      103.432762    11     0     0     0     3   3.470 0.482E-26 0.965E-26 0.122E-03
        90.777168       75.842761      535.626477    15     0     0     0     8   3.840 0.482E-38 0.965E-38 0.177E-04
       125.251883       48.286411      660.119129    27     0     0     0     3   4.680 0.482E-74 0.965E-74 0.842E-06
       100.639190       41.569238      149.472087    11     0     0     0     4   3.470 0.482E-26 0.965E-26 0.122E-03
         8.823781      178.614204     4238.338103     1     0     0     0     7   1.560 0.482E+04 0.965E+04 0.000E+00
        58.467890      178.078740       64.030507    10     0     0     0     4   3.360 0.482E-23 0.965E-23 0.230E-03
        50.457137      182.536460      871.301375    36     0     0     0     1   5.150 0.482-101 0.965-101 0.239E-06
       120.531350       69.535966      495.664905     9     0     0     0     7   3.240 0.482E-20 0.965E-20 0.485E-03
       151.817157       38.794468      917.552761    37     0     0     0     7   5.190 0.482-104 0.965-104 0.214E-06
       126.937581       54.191601      341.605340    13     0     0     0     6   3.660 0.482E-32 0.965E-32 0.417E-04
        58.621511        2.880290      278.956594     6     0     0     0     2   2.830 0.482E-11 0.965E-11 0.911E-01
       185.744740       83.481515       99.528486    13     0     0     0     8   3.660 0.482E-32 0.965E-32 0.417E-04
        85.279327      110.862333      536.933150    13     0     0     0     7   3.660 0.482E-32 0.965E-32 0.417E-04
        17.214158      161.105156      239.248219    10     0     0     0     7   3.360 0.482E-23 0.965E-23 0.230E-03
       144.497725       61.239522      321.732739    16     0     0     0     3   3.930 0.482E-41 0.965E-41 0.123E-04
        23.814863       11.969914       94.144951    17     0     0     0     6   4.010 0.482E-44 0.965E-44 0.875E-05
       186.506977       27.125986      560.284272    23     0     0     0     6   4.430 0.482E-62 0.965E-62 0.180E-05
        32.888761      167.182212      316.647607    12     0     0     0     8   3.570 0.482E-29 0.965E-29 0.693E-04
       165.992090       83.797202      344.371930    18     0     0     0     4   4.080 0.482E-47 0.965E-47 0.640E-05
       177.598676       23.721280       26.482010    15     0     0     0     1   3.840 0.482E-38 0.965E-38 0.177E-04
        43.749384      115.832280      124.407207    14     0     0     0     4   3.760 0.482E-35 0.965E-35 0.267E-04
       164.697253       48.540586      252.152447     6     0     0     0     3   2.830 0.482E-11 0.965E-11 0.911E-01
        22.524106       97.573485      340.398713    14     0     0     0     8   3.760 0.482E-35 0.965E-35 0.267E-04
       155.472320      182.582328      629.701769    20     0     0     0     1   4.230 0.482E-53 0.965E-53 0.367E-05
        66.202272       91.374867      186.247894    12     0     0     0     2   3.570 0.482E-29 0.965E-29 0.693E-04
        80.422664      138.339351      756.990888    16     0     0     0     6   3.930 0.482E-41 0.965E-41 0.123E-04
        76.200416       95.303656      155.468000    12     0     0     0     7   3.570 0.482E-29 0.965E-29 0.693E-04
        44.320441       51.839916      773.015850    24     0     0     0     2   4.500 0.482E-65 0.965E-65 0.147E-05
        62.850672        4.980496      365.715458    21     0     0     0     1   4.300 0.482E-56 0.965E-56 0.284E-05
       194.850834       39.629498      213.897658    11     0     0     0     6   3.470 0.482E-26 0.965E-26 0.122E-03
        32.192202      118.320390      682.922112    13     0     0     0     7   3.660 0.482E-32 0.965E-32 0.417E-04
       144.341793      127.742978      244.927566     9     0     0     0     5   3.240 0.482E-20 0.965E-20 0.485E-03
        57.617271      124.426486       70.070067    14     0     0     0     4   3.760 0.482E-35 0.965E-35 0.267E-04
        88.437789       34.021808      298.001066    12     0     0     0     1   3.570 0.482E-29 0.965E-29 0.693E-04
       196.406185       81.005835      556.198413    15     0     0     0     3   3.840 0.482E-38 0.965E-38 0.177E-04
       122.630115       38.342776      783.862935    26     0     0     0     6   4.620 0.482E-71 0.965E-71 0.101E-05
       141.897536       63.343014      565.356000    13     0     0     0     5   3.660 0.482E-32 0.965E-32 0.417E-04
       148.202653      198.443104       84.509234    12     0     0     0     6   3.570 0.482E-29 0.965E-29 0.693E-04
       168.950532       25.846781      425.365814    12     0     0     0     3   3.570 0.482E-29 0.965E-29 0.693E-04
       122.847730      134.822810       83.015571    11     0     0     0     6   3.470 0.482E-26 0.965E-26 0.122E-03
        74.565187      187.024369      576.744258    22     0     0     0     8   4.370 0.482E-59 0.965E-59 0.225E-05
       167.100723      177.618532      408.587793    12     0     0     0     8   3.570 0.482E-29 0.965E-29 0.693E-04
        74.212495       17.895047      123.988238     6     0     0     0     5   2.830 0.482E-11 0.965E-11 0.911E-01
        20.533618       83.983208       73.034931    10     0     0     0     1   3.360 0.482E-23 0.965E-23 0.230E-03
       149.523570       24.503941      234.071743    10     0     0     0     1   3.360 0.482E-23 0.965E-23 0.230E-03
       196.596113       79.398141      128.212474     6     0     0     0     7   2.830 0.482E-11 0.965E-11 0.911E-01