ITEM: TIMESTEP
0
ITEM: NUMBER OF ATOMS
         387
ITEM: BOX BOUNDS pp pp pp
  0.0000000E+00   200.000000000000     
  0.0000000E+00   200.000000000000     
  0.0000000E+00   5000.00000000000     
ITEM: ATOMS x y z f1 f2 f3 f4 orient radius rate_mig rate_rot rate_emit
        42.085409       15.425974      513.798196    13     0     0     0     6   3.660 0.591E-32 0.118E-31 0.630E-04
       156.833165       82.166430      500.425169    12     0     0     0     2   3.570 0.591E-29 0.118E-28 0.104E-03
         5.124139       24.457836     2118.201963     1     0     0     0     2   1.560 0.591E+04 0.118E+05 0.000E+00
         5.283744       14.817722       22.158688    11     0     0     0     3   3.470 0.591E-26 0.118E-25 0.182E-03
        87.302005      152.429467       92.463803    11     0     0     0     2   3.470 0.591E-26 0.118E-25 0.182E-03
       187.733717       88.310863      320.627182    13     0     0     0     5   3.660 0.591E-32 0.118E-31 0.630E-04
         3.666750        8.818418       94.597439    26     0     0     0     7   4.620 0.591E-71 0.118E-70 0.158E-05
        43.647303      115.726821      124.665419    16     0     0     0     2   3.930 0.591E-41 0.118E-40 0.188E-04
        79.880707      149.743571      424.642667    12     0     0     0     7   3.570 0.591E-29 0.118E-28 0.104E-03
       162.491586       26.693535      264.505020    16     0     0     0     2   3.930 0.591E-41 0.118E-40 0.188E-04
        18.225410       95.904575      327.821135    18     0     0     0     7   4.080 0.591E-47 0.118E-46 0.986E-05
       100.402227       48.937090     2660.584229     1     0     0     0     5   1.560 0.591E+04 0.118E+05 0.000E+00
       129.655182       26.490380      103.759805    10     0     0     0     3   3.360 0.591E-23 0.118E-22 0.341E-03
       138.248213       95.792369      529.222476    14     0     0     0     2   3.760 0.591E-35 0.118E-34 0.405E-04
        49.024630      199.668435      324.484690    10     0     0     0     5   3.360 0.591E-23 0.118E-22 0.341E-03
       126.136301       70.241011       59.384681    19     0     0     0     8   4.160 0.591E-50 0.118E-49 0.741E-05
       120.053956       52.522876      703.534843    22     0     0     0     2   4.370 0.591E-59 0.118E-58 0.351E-05
        79.016203        3.171207      685.268528    21     0     0     0     7   4.300 0.591E-56 0.118E-55 0.442E-05
        94.656289      139.871803      191.245201    24     0     0     0     3   4.500 0.591E-65 0.118E-64 0.230E-05
       133.106830      128.304126      873.732651    19     0     0     0     5   4.160 0.591E-50 0.118E-49 0.741E-05
        82.658531      117.489808      437.260206    13     0     0     0     2   3.660 0.591E-32 0.118E-31 0.630E-04
        71.636003       65.352601      431.119106    18     0     0     0     1   4.080 0.591E-47 0.118E-46 0.986E-05
        33.229912      114.915526      166.901534    14     0     0     0     5   3.760 0.591E-35 0.118E-34 0.405E-04
        53.686581       88.143623      695.932070    19     0     0     0     1   4.160 0.591E-50 0.118E-49 0.741E-05
        84.969792       81.641015      289.075696    15     0     0     0     1   3.840 0.591E-38 0.118E-37 0.270E-04
       101.497123      186.676557      221.039960    16     0     0     0     2   3.930 0.591E-41 0.118E-40 0.188E-04
        65.278437      172.288492      347.936590    19     0     0     0     4   4.160 0.591E-50 0.118E-49 0.741E-05
       188.252808      186.202091      428.363107     6     0     0     0     8   2.830 0.591E-11 0.118E-10 0.127E+00
       167.804063      167.421438       27.526469    12     0     0     0     4   3.570 0.591E-29 0.118E-28 0.104E-03
       133.901392      104.550800      300.260916     9     0     0     0     6   3.240 0.591E-20 0.118E-19 0.713E-03
        84.381127      193.194324      395.657210    13     0     0     0     4   3.660 0.591E-32 0.118E-31 0.630E-04
       156.542273      150.372366      189.882206     9     0     0     0     5   3.240 0.591E-20 0.118E-19 0.713E-03
        84.374333       51.470551      299.254201     9     0     0     0     6   3.240 0.591E-20 0.118E-19 0.713E-03
       105.636755       96.246122       77.162972    12     0     0     0     1   3.570 0.591E-29 0.118E-28 0.104E-03
        50.483664       55.314263      342.001508    11     0     0     0     2   3.470 0.591E-26 0.118E-25 0.182E-03
        53.652553      107.543269      400.956195    13     0     0     0     4   3.660 0.591E-32 0.118E-31 0.630E-04
        86.435863      164.434438      163.640949    15     0     0     0     5   3.840 0.591E-38 0.118E-37 0.270E-04
        58.529135       23.208174     2704.994113     1     0     0     0     8   1.560 0.591E+04 0.118E+05 0.000E+00
       131.526284      116.134378      460.222683    12     0     0     0     3   3.570 0.591E-29 0.118E-28 0.104E-03
       152.072785       68.217921      618.151799    21     0     0     0     7   4.300 0.591E-56 0.118E-55 0.442E-05
        27.083587       16.609617      372.239203     9     0     0     0     4   3.240 0.591E-20 0.118E-19 0.713E-03
       159.053500       69.830128       31.437147     9     0     0     0     3   3.240 0.591E-20 0.118E-19 0.713E-03
       116.469202       70.550058      668.714295    10     0     0     0     5   3.360 0.591E-23 0.118E-22 0.341E-03
       163.680417      146.276247      973.685562    54     0     0     0     4   5.890 0.591-155 0.118-154 0.824E-07
       165.045863       57.834097       91.673459    12     0     0     0     2   3.570 0.591E-29 0.118E-28 0.104E-03
       137.707008      191.819362     1037.845430    60     0     0     0     6   6.100 0.591-173 0.118-172 0.573E-07
        79.332676       17.619628      338.120968    15     0     0     0     7   3.840 0.591E-38 0.118E-37 0.270E-04
       104.009357      127.993361       46.930400    13     0     0     0     3   3.660 0.591E-32 0.118E-31 0.630E-04
         9.634303      110.136984      161.905902    14     0     0     0     3   3.760 0.591E-35 0.118E-34 0.405E-04
        40.104129      152.146018      746.090082    21     0     0     0     2   4.300 0.591E-56 0.118E-55 0.442E-05
       181.769494       30.124180      287.399081    16     0     0     0     2   3.930 0.591E-41 0.118E-40 0.188E-04
       153.993862      105.987717      465.100181    17     0     0     0     1   4.010 0.591E-44 0.118E-43 0.134E-04
        61.578788       64.477342      107.479799    19     0     0     0     7   4.160 0.591E-50 0.118E-49 0.741E-05
       168.190355      125.080365       79.163945    10     0     0     0     1   3.360 0.591E-23 0.118E-22 0.341E-03
       190.684614      172.435448      609.646305    15     0     0     0     1   3.840 0.591E-38 0.118E-37 0.270E-04
        15.492910        5.008337     2433.377039     1     0     0     0     7   1.560 0.591E+04 0.118E+05 0.000E+00
       189.625262       48.658551       51.156701    14     0     0     0     8   3.760 0.591E-35 0.118E-34 0.405E-04
        47.815967       75.836501      316.915706     9     0     0     0     5   3.240 0.591E-20 0.118E-19 0.713E-03
       120.987692       93.228463      419.160634    12     0     0     0     7   3.570 0.591E-29 0.118E-28 0.104E-03
        69.915281       31.162092      407.321537    11     0     0     0     2   3.470 0.591E-26 0.118E-25 0.182E-03
       198.706249       28.854689      618.456514    26     0     0     0     5   4.620 0.591E-71 0.118E-70 0.158E-05
       124.121270       61.993981      212.204042    14     0     0     0     3   3.760 0.591E-35 0.118E-34 0.405E-04
        63.154615      126.943231      101.590063    13     0     0     0     1   3.660 0.591E-32 0.118E-31 0.630E-04
       121.235379       77.071940      395.284113    16     0     0     0     7   3.930 0.591E-41 0.118E-40 0.188E-04
       114.761103      101.063241       80.083514     9     0     0     0     7   3.240 0.591E-20 0.118E-19 0.713E-03
        74.651841       10.524273      640.671566    20     0     0     0     6   4.230 0.591E-53 0.118E-52 0.569E-05
       195.704260       36.537174      130.007787     9     0     0     0     4   3.240 0.591E-20 0.118E-19 0.713E-03
       169.743557      191.237218       58.533141    11     0     0     0     3   3.470 0.591E-26 0.118E-25 0.182E-03
       132.133583       35.970244      458.465231    13     0     0     0     1   3.660 0.591E-32 0.118E-31 0.630E-04
       195.175145       78.858377       17.046681     9     0     0     0     3   3.240 0.591E-20 0.118E-19 0.713E-03
        64.180972       44.447523       27.445271    13     0     0     0     5   3.660 0.591E-32 0.118E-31 0.630E-04
       180.928504       22.893776      498.095555    14     0     0     0     1   3.760 0.591E-35 0.118E-34 0.405E-04
        14.490540       42.056933       75.046157    18     0     0     0     3   4.080 0.591E-47 0.118E-46 0.986E-05
       171.778902       42.118426      844.098461    12     0     0     0     1   3.570 0.591E-29 0.118E-28 0.104E-03
       197.333454      139.623072      189.071858    13     0     0     0     7   3.660 0.591E-32 0.118E-31 0.630E-04
        38.673805      107.585007     2898.043133     1     0     0     0     6   1.560 0.591E+04 0.118E+05 0.000E+00
       158.428169       75.661811      106.839550    15     0     0     0     1   3.840 0.591E-38 0.118E-37 0.270E-04
         9.364800       29.992474      372.474306    13     0     0     0     7   3.660 0.591E-32 0.118E-31 0.630E-04
        88.735242      182.780354     3190.600718     1     0     0     0     3   1.560 0.591E+04 0.118E+05 0.000E+00
       182.536515      123.660241      154.057776    12     0     0     0     5   3.570 0.591E-29 0.118E-28 0.104E-03
        85.330429       52.827798      649.399830    23     0     0     0     3   4.430 0.591E-62 0.118E-61 0.282E-05
       135.646721      136.566698     4158.725095     1     0     0     0     7   1.560 0.591E+04 0.118E+05 0.000E+00
       134.887416       31.774571      210.101127    15     0     0     0     2   3.840 0.591E-38 0.118E-37 0.270E-04
       196.855819      130.746666      151.344618    13     0     0     0     3   3.660 0.591E-32 0.118E-31 0.630E-04
       181.805046       85.495823      774.041822    26     0     0     0     4   4.620 0.591E-71 0.118E-70 0.158E-05
       187.933725      131.001859      288.446302    14     0     0     0     5   3.760 0.591E-35 0.118E-34 0.405E-04
        56.656369      154.011464      815.380394    13     0     0     0     7   3.660 0.591E-32 0.118E-31 0.630E-04
        95.486151       81.762349      370.799259    16     0     0     0     1   3.930 0.591E-41 0.118E-40 0.188E-04
       164.206383       40.723176      360.092754    11     0     0     0     2   3.470 0.591E-26 0.118E-25 0.182E-03
       154.326464       58.454915      530.595148    13     0     0     0     5   3.660 0.591E-32 0.118E-31 0.630E-04
         2.608452       69.927830     1018.976795    57     0     0     0     2   6.000 0.591-164 0.118-163 0.682E-07
       135.396812       97.784253      111.234755    13     0     0     0     1   3.660 0.591E-32 0.118E-31 0.630E-04
        43.347867      174.956552      484.157785    23     0     0     0     7   4.430 0.591E-62 0.118E-61 0.282E-05
       111.737375      190.629376      341.324981    10     0     0     0     8   3.360 0.591E-23 0.118E-22 0.341E-03
        63.514784        9.564383      426.956287     9     0     0     0     3   3.240 0.591E-20 0.118E-19 0.713E-03
        95.980290       94.592010     3405.800790     1     0     0     0     3   1.560 0.591E+04 0.118E+05 0.000E+00
       101.054905       65.117864      361.370915     9     0     0     0     5   3.240 0.591E-20 0.118E-19 0.713E-03
       189.274453      144.939571      795.019819    19     0     0     0     7   4.160 0.591E-50 0.118E-49 0.741E-05
       148.646724       11.381769      118.995798    10     0     0     0     6   3.360 0.591E-23 0.118E-22 0.341E-03
       183.831171       88.482212       66.560071    11     0     0     0     7   3.470 0.591E-26 0.118E-25 0.182E-03
       163.759382      194.260116      700.347634    26     0     0     0     6   4.620 0.591E-71 0.118E-70 0.158E-05
        91.555690      168.567916       66.232380    16     0     0     0     7   3.930 0.591E-41 0.118E-40 0.188E-04
        91.242323      103.185768      131.290292    10     0     0     0     6   3.360 0.591E-23 0.118E-22 0.341E-03
        69.357016       10.862433      204.576291    20     0     0     0     4   4.230 0.591E-53 0.118E-52 0.569E-05
        29.144327       51.612086      654.601244    14     0     0     0     8   3.760 0.591E-35 0.118E-34 0.405E-04
        36.360304       69.880422      158.509075    10     0     0     0     1   3.360 0.591E-23 0.118E-22 0.341E-03
       122.118197       40.201354      135.904517    18     0     0     0     5   4.080 0.591E-47 0.118E-46 0.986E-05
        14.297527      191.558534      818.868754    16     0     0     0     5   3.930 0.591E-41 0.118E-40 0.188E-04
        86.620927      153.975224      121.417730    11     0     0     0     6   3.470 0.591E-26 0.118E-25 0.182E-03
        20.603426       68.295097      466.857276     9     0     0     0     3   3.240 0.591E-20 0.118E-19 0.713E-03
       132.145149       38.579207       49.018579    16     0     0     0     5   3.930 0.591E-41 0.118E-40 0.188E-04
        44.505162       82.595695      853.485457    20     0     0     0     5   4.230 0.591E-53 0.118E-52 0.569E-05
       198.452540        6.519406      681.277720    24     0     0     0     2   4.500 0.591E-65 0.118E-64 0.230E-05
        25.743561      129.155765     3975.501999     1     0     0     0     8   1.560 0.591E+04 0.118E+05 0.000E+00
       150.734745       44.339680      539.575542    12     0     0     0     8   3.570 0.591E-29 0.118E-28 0.104E-03
        48.355277      136.420441      504.803542    20     0     0     0     5   4.230 0.591E-53 0.118E-52 0.569E-05
       161.874417      155.627085      536.595467    24     0     0     0     1   4.500 0.591E-65 0.118E-64 0.230E-05
        56.354326      130.979647      433.649923    12     0     0     0     1   3.570 0.591E-29 0.118E-28 0.104E-03
       168.949303      179.557096      459.462520    12     0     0     0     7   3.570 0.591E-29 0.118E-28 0.104E-03
       187.124944        6.206566     3335.372311     1     0     0     0     4   1.560 0.591E+04 0.118E+05 0.000E+00
        24.031469       58.631028      387.606556     9     0     0     0     1   3.240 0.591E-20 0.118E-19 0.713E-03
       175.762730      198.449141      114.120261    15     0     0     0     5   3.840 0.591E-38 0.118E-37 0.270E-04
       104.256922      191.293224      419.995838    18     0     0     0     4   4.080 0.591E-47 0.118E-46 0.986E-05
        63.196788      148.734210     2991.857435     1     0     0     0     3   1.560 0.591E+04 0.118E+05 0.000E+00
       134.691756       73.108936      514.584422    20     0     0     0     6   4.230 0.591E-53 0.118E-52 0.569E-05
       164.223090        1.007764      411.881316    10     0     0     0     3   3.360 0.591E-23 0.118E-22 0.341E-03
        51.053699       95.080533      590.963479    27     0     0     0     4   4.680 0.591E-74 0.118E-73 0.133E-05
       163.967867      116.823539       47.880631    12     0     0     0     5   3.570 0.591E-29 0.118E-28 0.104E-03
       181.974205      108.506137      256.301544    13     0     0     0     3   3.660 0.591E-32 0.118E-31 0.630E-04
       106.193332      145.382439      376.045730    12     0     0     0     4   3.570 0.591E-29 0.118E-28 0.104E-03
       194.773480      195.634046      152.692380    14     0     0     0     3   3.760 0.591E-35 0.118E-34 0.405E-04
       126.284181      196.599836     3043.991291     1     0     0     0     8   1.560 0.591E+04 0.118E+05 0.000E+00
       119.316505       48.743069      360.722887    17     0     0     0     2   4.010 0.591E-44 0.118E-43 0.134E-04
       147.466934      155.752044      174.338029    11     0     0     0     7   3.470 0.591E-26 0.118E-25 0.182E-03
        76.527287      126.424200      222.910498    19     0     0     0     8   4.160 0.591E-50 0.118E-49 0.741E-05
        20.352017       86.342668      700.363096    13     0     0     0     2   3.660 0.591E-32 0.118E-31 0.630E-04
        22.952464      155.314888       97.578426    21     0     0     0     7   4.300 0.591E-56 0.118E-55 0.442E-05
        20.166810      162.986807      558.626618    11     0     0     0     6   3.470 0.591E-26 0.118E-25 0.182E-03
        57.255151       95.695241       70.718439    11     0     0     0     6   3.470 0.591E-26 0.118E-25 0.182E-03
         3.963971      169.126993     2333.556040     1     0     0     0     2   1.560 0.591E+04 0.118E+05 0.000E+00
        99.730627      168.973115      202.096107    14     0     0     0     5   3.760 0.591E-35 0.118E-34 0.405E-04
       115.962957      192.252901      202.327344    17     0     0     0     4   4.010 0.591E-44 0.118E-43 0.134E-04
        63.185449      190.598997      303.992223    12     0     0     0     7   3.570 0.591E-29 0.118E-28 0.104E-03
        73.437154        8.073423      165.760739    17     0     0     0     4   4.010 0.591E-44 0.118E-43 0.134E-04
        37.395648       99.975636      587.599734    12     0     0     0     6   3.570 0.591E-29 0.118E-28 0.104E-03
       192.681945       49.246727       64.439787    14     0     0     0     4   3.760 0.591E-35 0.118E-34 0.405E-04
        98.397389      180.574908      491.148852    18     0     0     0     7   4.080 0.591E-47 0.118E-46 0.986E-05
       161.858857      157.536919      646.483439    26     0     0     0     1   4.620 0.591E-71 0.118E-70 0.158E-05
        70.917383        1.350609      126.630506    15     0     0     0     8   3.840 0.591E-38 0.118E-37 0.270E-04
        95.066497       38.799694       46.183493    15     0     0     0     7   3.840 0.591E-38 0.118E-37 0.270E-04
       170.665906       27.537159     3062.884205     1     0     0     0     5   1.560 0.591E+04 0.118E+05 0.000E+00
        85.775693       80.531238      160.166091     9     0     0     0     1   3.240 0.591E-20 0.118E-19 0.713E-03
       134.742549      198.787342      189.410627    13     0     0     0     2   3.660 0.591E-32 0.118E-31 0.630E-04
       185.248997       49.818083      739.747065    20     0     0     0     6   4.230 0.591E-53 0.118E-52 0.569E-05
        33.497007      128.156824      806.789697    28     0     0     0     8   4.730 0.591E-77 0.118E-76 0.112E-05
        54.975127       27.033315       91.402026    14     0     0     0     2   3.760 0.591E-35 0.118E-34 0.405E-04
        93.024411      139.894656      625.214478    18     0     0     0     6   4.080 0.591E-47 0.118E-46 0.986E-05
        52.189601       96.775709      434.766350    15     0     0     0     5   3.840 0.591E-38 0.118E-37 0.270E-04
       140.133149      119.449695      724.911056    25     0     0     0     7   4.560 0.591E-68 0.118E-67 0.189E-05
         4.088095      135.727530      559.806648    22     0     0     0     5   4.370 0.591E-59 0.118E-58 0.351E-05
       107.280029       69.512174      796.301420    21     0     0     0     8   4.300 0.591E-56 0.118E-55 0.442E-05
        59.832135      196.933926      405.922872    17     0     0     0     2   4.010 0.591E-44 0.118E-43 0.134E-04
         7.379329      175.715167      457.081692    19     0     0     0     5   4.160 0.591E-50 0.118E-49 0.741E-05
       153.563474      110.821955      235.181568    10     0     0     0     6   3.360 0.591E-23 0.118E-22 0.341E-03
        28.383300      176.199036     2825.814723     1     0     0     0     6   1.560 0.591E+04 0.118E+05 0.000E+00
         9.046516      108.153062      307.338708    11     0     0     0     1   3.470 0.591E-26 0.118E-25 0.182E-03
       199.498014      176.036191      779.627938    12     0     0     0     4   3.570 0.591E-29 0.118E-28 0.104E-03
        93.147415       90.858810      911.791771    48     0     0     0     4   5.660 0.591-137 0.118-136 0.126E-06
       156.472846       95.200482       37.764033    11     0     0     0     1   3.470 0.591E-26 0.118E-25 0.182E-03
       122.086562      186.455310       87.899642    11     0     0     0     7   3.470 0.591E-26 0.118E-25 0.182E-03
       199.550282      138.287256     2460.284365     1     0     0     0     7   1.560 0.591E+04 0.118E+05 0.000E+00
       175.086510      182.299513      217.422868    13     0     0     0     4   3.660 0.591E-32 0.118E-31 0.630E-04
       115.774528       28.214533       28.464118    10     0     0     0     3   3.360 0.591E-23 0.118E-22 0.341E-03
       198.334699      116.062617      265.979083    16     0     0     0     2   3.930 0.591E-41 0.118E-40 0.188E-04
         7.501191      105.338051       86.120160    15     0     0     0     7   3.840 0.591E-38 0.118E-37 0.270E-04
       184.777017      157.380622      320.413897    13     0     0     0     2   3.660 0.591E-32 0.118E-31 0.630E-04
        46.419925       25.743459      461.306305    10     0     0     0     5   3.360 0.591E-23 0.118E-22 0.341E-03
       146.643519      181.027597      270.835246    13     0     0     0     5   3.660 0.591E-32 0.118E-31 0.630E-04
        84.213792      164.529367      768.448971    24     0     0     0     1   4.500 0.591E-65 0.118E-64 0.230E-05
         9.727866      150.924602      389.484613    16     0     0     0     1   3.930 0.591E-41 0.118E-40 0.188E-04
        27.261785      156.493964     2977.206407     1     0     0     0     6   1.560 0.591E+04 0.118E+05 0.000E+00
       121.818578       42.282754      474.555443    11     0     0     0     5   3.470 0.591E-26 0.118E-25 0.182E-03
       134.295371      139.322942      167.019906    11     0     0     0     2   3.470 0.591E-26 0.118E-25 0.182E-03
        35.817589      135.700824     2116.415797     1     0     0     0     5   1.560 0.591E+04 0.118E+05 0.000E+00
        27.868634       88.617607     2747.964165     1     0     0     0     8   1.560 0.591E+04 0.118E+05 0.000E+00
        81.740453       40.801116      619.303770    11     0     0     0     3   3.470 0.591E-26 0.118E-25 0.182E-03
       150.984009      152.146883      294.883476    12     0     0     0     6   3.570 0.591E-29 0.118E-28 0.104E-03
       117.314156       26.131784      435.918395    14     0     0     0     2   3.760 0.591E-35 0.118E-34 0.405E-04
        87.289589       64.997570      464.838703    14     0     0     0     2   3.760 0.591E-35 0.118E-34 0.405E-04
        88.719295      143.942841       88.497485    16     0     0     0     6   3.930 0.591E-41 0.118E-40 0.188E-04
        65.273638       47.718646       48.153904    12     0     0     0     7   3.570 0.591E-29 0.118E-28 0.104E-03
        39.496744       34.525876      130.085144    22     0     0     0     2   4.370 0.591E-59 0.118E-58 0.351E-05
        47.354822       84.449048      158.471204     9     0     0     0     2   3.240 0.591E-20 0.118E-19 0.713E-03
        11.871003       96.264135      269.825799    15     0     0     0     3   3.840 0.591E-38 0.118E-37 0.270E-04
       191.031155      189.679302      442.295232    14     0     0     0     8   3.760 0.591E-35 0.118E-34 0.405E-04
       119.196073       97.917683       54.474586    12     0     0     0     7   3.570 0.591E-29 0.118E-28 0.104E-03
        18.525802      148.689859      337.037487    10     0     0     0     4   3.360 0.591E-23 0.118E-22 0.341E-03
       199.163015      173.442876      465.234410    12     0     0     0     8   3.570 0.591E-29 0.118E-28 0.104E-03
        20.042211       14.870251      266.685591    14     0     0     0     4   3.760 0.591E-35 0.118E-34 0.405E-04
       173.919202      110.405202      116.268054    12     0     0     0     8   3.570 0.591E-29 0.118E-28 0.104E-03
       155.663177       89.864290       64.393650    13     0     0     0     8   3.660 0.591E-32 0.118E-31 0.630E-04
       113.094045      198.773689       75.743958    21     0     0     0     5   4.300 0.591E-56 0.118E-55 0.442E-05
        99.879317       42.650675      552.217052    18     0     0     0     2   4.080 0.591E-47 0.118E-46 0.986E-05
        23.864513       12.048723       94.398797    18     0     0     0     4   4.080 0.591E-47 0.118E-46 0.986E-05
       137.718814       42.388052      116.322548    12     0     0     0     3   3.570 0.591E-29 0.118E-28 0.104E-03
        99.659941       15.179448      103.432762    11     0     0     0     3   3.470 0.591E-26 0.118E-25 0.182E-03
        90.777168       75.842761      535.626477    15     0     0     0     8   3.840 0.591E-38 0.118E-37 0.270E-04
       125.251883       48.286411      660.119129    27     0     0     0     3   4.680 0.591E-74 0.118E-73 0.133E-05
       100.639190       41.569238      149.472087    11     0     0     0     4   3.470 0.591E-26 0.118E-25 0.182E-03
        51.957456      148.991152     4382.087434     1     0     0     0     7   1.560 0.591E+04 0.118E+05 0.000E+00
        58.467890      178.078740       64.030507    10     0     0     0     4   3.360 0.591E-23 0.118E-22 0.341E-03
        50.457137      182.536460      871.301375    36     0     0     0     1   5.150 0.591-101 0.118-100 0.382E-06
       120.531350       69.535966      495.664905     9     0     0     0     7   3.240 0.591E-20 0.118E-19 0.713E-03
       151.817157       38.794468      917.552761    37     0     0     0     7   5.190 0.591-104 0.118-103 0.342E-06
       126.937581       54.191601      341.605340    13     0     0     0     6   3.660 0.591E-32 0.118E-31 0.630E-04
        58.621511        2.880290      278.956594     6     0     0     0     2   2.830 0.591E-11 0.118E-10 0.127E+00
       185.922516       83.421322       99.369289    14     0     0     0     6   3.760 0.591E-35 0.118E-34 0.405E-04
        85.279327      110.862333      536.933150    13     0     0     0     7   3.660 0.591E-32 0.118E-31 0.630E-04
        17.214158      161.105156      239.248219    10     0     0     0     7   3.360 0.591E-23 0.118E-22 0.341E-03
       144.497725       61.239522      321.732739    16     0     0     0     3   3.930 0.591E-41 0.118E-40 0.188E-04
       157.056230      111.594400      216.759474    21     0     0     0     5   4.300 0.591E-56 0.118E-55 0.442E-05
       186.506977       27.125986      560.284272    23     0     0     0     6   4.430 0.591E-62 0.118E-61 0.282E-05
        32.888761      167.182212      316.647607    12     0     0     0     8   3.570 0.591E-29 0.118E-28 0.104E-03
       150.196115      164.391383     2396.360054     1     0     0     0     3   1.560 0.591E+04 0.118E+05 0.000E+00
       177.598676       23.721280       26.482010    15     0     0     0     1   3.840 0.591E-38 0.118E-37 0.270E-04
        65.089174       56.967511     4014.847611     1     0     0     0     7   1.560 0.591E+04 0.118E+05 0.000E+00
        21.390635      171.518082      143.028336    17     0     0     0     1   4.010 0.591E-44 0.118E-43 0.134E-04
        22.524106       97.573485      340.398713    14     0     0     0     8   3.760 0.591E-35 0.118E-34 0.405E-04
       155.472320      182.582328      629.701769    20     0     0     0     1   4.230 0.591E-53 0.118E-52 0.569E-05
        66.202272       91.374867      186.247894    12     0     0     0     2   3.570 0.591E-29 0.118E-28 0.104E-03
        80.422664      138.339351      756.990888    16     0     0     0     6   3.930 0.591E-41 0.118E-40 0.188E-04
        76.200416       95.303656      155.468000    12     0     0     0     7   3.570 0.591E-29 0.118E-28 0.104E-03
        44.320441       51.839916      773.015850    24     0     0     0     2   4.500 0.591E-65 0.118E-64 0.230E-05
        62.850672        4.980496      365.715458    21     0     0     0     1   4.300 0.591E-56 0.118E-55 0.442E-05
       194.850834       39.629498      213.897658    11     0     0     0     6   3.470 0.591E-26 0.118E-25 0.182E-03
        32.192202      118.320390      682.922112    13     0     0     0     7   3.660 0.591E-32 0.118E-31 0.630E-04
       144.341793      127.742978      244.927566     9     0     0     0     5   3.240 0.591E-20 0.118E-19 0.713E-03
        57.617271      124.426486       70.070067    14     0     0     0     4   3.760 0.591E-35 0.118E-34 0.405E-04
       165.752540       83.649193      344.310591    19     0     0     0     3   4.160 0.591E-50 0.118E-49 0.741E-05
       196.406185       81.005835      556.198413    15     0     0     0     3   3.840 0.591E-38 0.118E-37 0.270E-04
       122.630115       38.342776      783.862935    26     0     0     0     6   4.620 0.591E-71 0.118E-70 0.158E-05
       141.897536       63.343014      565.356000    13     0     0     0     5   3.660 0.591E-32 0.118E-31 0.630E-04
       148.232098      198.565112       84.685711    13     0     0     0     2   3.660 0.591E-32 0.118E-31 0.630E-04
       168.950532       25.846781      425.365814    12     0     0     0     3   3.570 0.591E-29 0.118E-28 0.104E-03
       122.847730      134.822810       83.015571    11     0     0     0     6   3.470 0.591E-26 0.118E-25 0.182E-03
        74.565187      187.024369      576.744258    22     0     0     0     8   4.370 0.591E-59 0.118E-58 0.351E-05
       167.100723      177.618532      408.587793    12     0     0     0     8   3.570 0.591E-29 0.118E-28 0.104E-03
        77.802425        9.875931     4450.711866     1     0     0     0     7   1.560 0.591E+04 0.118E+05 0.000E+00
        20.533618       83.983208       73.034931    10     0     0     0     1   3.360 0.591E-23 0.118E-22 0.341E-03
       149.523570       24.503941      234.071743    10     0     0     0     1   3.360 0.591E-23 0.118E-22 0.341E-03
        16.494658      154.533057      360.485164    12     0     0     0     5   3.570 0.591E-29 0.118E-28 0.104E-03