ITEM: TIMESTEP
0
ITEM: NUMBER OF ATOMS
         523
ITEM: BOX BOUNDS pp pp pp
  0.0000000E+00   200.000000000000     
  0.0000000E+00   200.000000000000     
  0.0000000E+00   5000.00000000000     
ITEM: ATOMS x y z f1 f2 f3 f4 orient radius rate_mig rate_rot rate_emit
       164.514540        0.054582      184.467838    18     1     0     0     5   4.084 0.000E+00 0.000E+00 0.884E-18
        74.125379      186.008205      224.895500    15     0     0     0     2   3.840 0.264E-57 0.528E-57 0.162E-44
        18.077024       95.755857      327.978975    17     0     0     0     4   4.010 0.264E-63 0.528E-63 0.150E-45
        29.205567       86.271280     2037.904918     1     0     0     0     8   1.560 0.264E-15 0.528E-15 0.000E+00
        73.355144       49.384620      195.987254     5     0     0     0     1   2.660 0.264E-27 0.528E-27 0.555E-28
       122.011297      186.061425       87.832890    10     4     0     0     2   3.357 0.000E+00 0.000E+00 0.251E-17
        53.686581       88.143623      695.932070    19     0     0     0     2   4.160 0.264E-69 0.528E-69 0.197E-46
       197.666948       80.736528      489.120152    16     0     0     0     5   3.930 0.264E-60 0.528E-60 0.469E-45
        44.320441       51.839916      773.015850    24     0     0     0     3   4.500 0.264E-84 0.528E-84 0.362E-48
       158.733123      142.426843       92.670934     9     5     0     0     1   3.241 0.000E+00 0.000E+00 0.332E-17
       184.819855       52.506930     1682.951395     1     0     0     0     3   1.560 0.264E-15 0.528E-15 0.000E+00
       191.645150      195.307816      230.540179    16     1     0     0     3   3.927 0.000E+00 0.000E+00 0.884E-18
       158.619432       76.161732      107.038533    11     4     0     0     1   3.466 0.000E+00 0.000E+00 0.247E-17
       185.426611       31.295317      486.032669    18     0     0     0     2   4.080 0.264E-66 0.528E-66 0.521E-46
       116.105942        4.551717      458.572817     9     0     0     0     8   3.240 0.264E-39 0.528E-39 0.104E-39
        79.016203        3.171207      685.268528    21     0     0     0     1   4.300 0.264E-75 0.528E-75 0.339E-47
         6.634799       20.574716      319.401105    14     0     0     0     2   3.760 0.264E-54 0.528E-54 0.638E-44
        98.237489        4.501858      325.001990     8     0     0     0     6   3.120 0.264E-36 0.528E-36 0.650E-32
        44.835199      141.851981     1408.735855     1     0     0     0     4   1.560 0.264E-15 0.528E-15 0.000E+00
       148.646724       11.381769      118.995798    10     4     0     0     8   3.357 0.000E+00 0.000E+00 0.251E-17
        89.106751       60.093647     1283.121625     1     0     0     0     8   1.560 0.264E-15 0.528E-15 0.000E+00
       157.880213       13.190712       30.079589     8     1     0     0     8   3.117 0.000E+00 0.000E+00 0.888E-18
        33.652471      128.282407      806.545984    26     0     0     0     5   4.620 0.264E-90 0.528E-90 0.996E-49
       120.987692       93.228463      419.160634    12     0     0     0     6   3.570 0.264E-48 0.528E-48 0.155E-42
       168.245356      125.321838       79.504564     9     2     0     0     5   3.241 0.000E+00 0.000E+00 0.144E-17
        64.169159       44.376127       27.088228    12     0     0     0     1   3.570 0.264E-48 0.528E-48 0.155E-42
       105.412705      181.900153      465.141268    20     0     0     0     6   4.230 0.264E-72 0.528E-72 0.795E-47
       103.094195       96.495586     1144.504814     1     0     0     0     4   1.560 0.264E-15 0.528E-15 0.000E+00
        85.548639       97.744102     1543.600608     1     0     0     0     1   1.560 0.264E-15 0.528E-15 0.000E+00
        13.844866       53.071363       10.988686     8     0     0     0     2   3.120 0.264E-36 0.528E-36 0.650E-32
         2.862109      118.480941      758.360725    18     0     0     0     3   4.080 0.264E-66 0.528E-66 0.521E-46
       141.897536       63.343014      565.356000    13     0     0     0     8   3.660 0.264E-51 0.528E-51 0.288E-43
        32.192202      118.320390      682.922112    13     0     0     0     5   3.660 0.264E-51 0.528E-51 0.288E-43
       120.531350       69.535966      495.664905     9     0     0     0     2   3.240 0.264E-39 0.528E-39 0.104E-39
        29.151122        2.868140      960.446513    25     0     0     0     2   4.560 0.264E-87 0.528E-87 0.186E-48
       192.165730      135.997317      620.823106    22     0     0     0     7   4.370 0.264E-78 0.528E-78 0.154E-47
       185.653702       33.368032      162.772698     6     4     0     0     1   2.832 0.000E+00 0.000E+00 0.295E-17
         9.048248      136.028364     1380.377043     1     0     0     0     7   1.560 0.264E-15 0.528E-15 0.000E+00
       125.251883       48.286411      660.119129    27     0     0     0     1   4.680 0.264E-93 0.528E-93 0.548E-49
        61.523283       64.260821      107.500323    18    10     0     0     1   4.084 0.000E+00 0.000E+00 0.333E-15
       192.180409       38.614958     1831.687539     1     0     0     0     6   1.560 0.264E-15 0.528E-15 0.000E+00
       175.179572      164.060722     1107.628214     1     0     0     0     5   1.560 0.264E-15 0.528E-15 0.000E+00
       122.167492       39.868017      135.847786    16     4     0     0     1   3.927 0.000E+00 0.000E+00 0.122E-15
        87.167441      168.430487       78.865369     8     6     0     0     2   3.117 0.000E+00 0.000E+00 0.474E-17
        83.069466       91.154192      385.800169    10     0     0     0     3   3.360 0.264E-42 0.528E-42 0.876E-41
        84.776346       17.674247      857.278091    24     0     0     0     5   4.500 0.264E-84 0.528E-84 0.362E-48
       120.053956       52.522876      703.534843    22     0     0     0     8   4.370 0.264E-78 0.528E-78 0.154E-47
       158.292624       78.586338      415.084022    19     0     0     0     7   4.160 0.264E-69 0.528E-69 0.197E-46
        17.214158      161.105156      239.248219    10     2     0     0     1   3.357 0.000E+00 0.000E+00 0.144E-17
       150.734745       44.339680      539.575542    12     0     0     0     3   3.570 0.264E-48 0.528E-48 0.155E-42
       100.094614       21.294259     1524.688661     1     0     0     0     4   1.560 0.264E-15 0.528E-15 0.000E+00
       170.898369      163.056464      297.043522    11     0     0     0     5   3.470 0.264E-45 0.528E-45 0.103E-41
        53.647173      107.492386      400.707070    11     0     0     0     7   3.470 0.264E-45 0.528E-45 0.103E-41
       102.452658      101.661715     1004.192504     1     0     0     0     1   1.560 0.264E-15 0.528E-15 0.000E+00
         4.254788      135.226066      559.526675    19     0     0     0     4   4.160 0.264E-69 0.528E-69 0.197E-46
       154.982131      189.888104       89.663860     8     5     0     0     2   3.117 0.000E+00 0.000E+00 0.351E-17
        90.409988       14.959585      315.807017    10     0     0     0     4   3.360 0.264E-42 0.528E-42 0.876E-41
        63.585400      127.145171      101.709727    11     5     0     0     4   3.466 0.000E+00 0.000E+00 0.310E-17
       146.028746       27.470077      281.148170     7     0     0     0     3   2.980 0.264E-33 0.528E-33 0.907E-29
        88.474965       34.211840      298.612400     9     0     0     0     6   3.240 0.264E-39 0.528E-39 0.104E-39
       156.174390       66.105243     1148.716210     1     0     0     0     7   1.560 0.264E-15 0.528E-15 0.000E+00
        69.408959      157.667286     1194.156418     1     0     0     0     2   1.560 0.264E-15 0.528E-15 0.000E+00
       138.248213       95.792369      529.222476    14     0     0     0     3   3.760 0.264E-54 0.528E-54 0.638E-44
       156.468694       95.568496       37.862730    10     0     0     0     6   3.360 0.264E-42 0.528E-42 0.876E-41
        78.005218      183.157072      213.472464     5     0     0     0     8   2.660 0.264E-27 0.528E-27 0.555E-28
       184.491451      157.138314      320.519125    12     0     0     0     1   3.570 0.264E-48 0.528E-48 0.155E-42
       129.452666       14.441000     1146.696729     1     0     0     0     7   1.560 0.264E-15 0.528E-15 0.000E+00
       182.973458       80.026475      160.941458    13     6     0     0     6   3.664 0.000E+00 0.000E+00 0.363E-17
        24.777135       20.821728     1363.459999     1     0     0     0     8   1.560 0.264E-15 0.528E-15 0.000E+00
       137.376661      191.591577     1037.341946    41     0     0     0     2   5.370 0.264-135 0.528-135 0.126E-51
        20.533618       83.983208       73.034931    10     0     0     0     5   3.360 0.264E-42 0.528E-42 0.876E-41
        21.787236      148.157159      189.561989     6     0     0     0     1   2.830 0.264E-30 0.528E-30 0.317E-32
         9.034998       29.961261      372.519227    12     0     0     0     8   3.570 0.264E-48 0.528E-48 0.155E-42
       158.729152      182.748925     1901.293352     1     0     0     0     7   1.560 0.264E-15 0.528E-15 0.000E+00
       116.490358       58.226885      100.210725    10     9     0     0     6   3.357 0.000E+00 0.000E+00 0.496E-15
        49.351751      199.911892      323.751254     8     0     0     0     8   3.120 0.264E-36 0.528E-36 0.650E-32
       149.233474      171.371095      117.226682    22     6     0     0     5   4.367 0.000E+00 0.000E+00 0.319E-17
       142.663830      129.976017      590.271989    23     0     0     0     1   4.430 0.264E-81 0.528E-81 0.728E-48
       171.188349       90.236262     1429.709384     1     0     0     0     4   1.560 0.264E-15 0.528E-15 0.000E+00
       136.157686      115.145489      382.870616     6     0     0     0     6   2.830 0.264E-30 0.528E-30 0.317E-32
       140.199234        4.084596      237.410045    11     0     0     0     2   3.470 0.264E-45 0.528E-45 0.103E-41
       125.181978       17.736169     1648.284296     1     0     0     0     5   1.560 0.264E-15 0.528E-15 0.000E+00
        30.441246      103.535968     2057.200242     1     0     0     0     7   1.560 0.264E-15 0.528E-15 0.000E+00
        38.052992      144.469370      277.458803    16     0     0     0     5   3.930 0.264E-60 0.528E-60 0.469E-45
       195.199426      195.538805      152.875568    12     5     0     0     3   3.568 0.000E+00 0.000E+00 0.156E-15
        94.656289      139.871803      191.245201    24     2     0     0     4   4.495 0.000E+00 0.000E+00 0.141E-17
        55.669824      128.780960     2048.050012     1     0     0     0     8   1.560 0.264E-15 0.528E-15 0.000E+00
        66.581329      110.348930      239.755886     8     2     0     0     8   3.117 0.000E+00 0.000E+00 0.145E-17
       139.698075      159.703354      387.870412     8     0     0     0     6   3.120 0.264E-36 0.528E-36 0.650E-32
       195.175145       78.858377       17.046681     9     0     0     0     7   3.240 0.264E-39 0.528E-39 0.104E-39
       134.691756       73.108936      514.584422    20     0     0     0     1   4.230 0.264E-72 0.528E-72 0.795E-47
        69.915281       31.162092      407.321537    11     0     0     0     4   3.470 0.264E-45 0.528E-45 0.103E-41
        56.129533      122.381657      155.283408     9     1     0     0     8   3.241 0.000E+00 0.000E+00 0.888E-18
        60.221444      146.072946       44.664971     9     1     0     0     5   3.241 0.000E+00 0.000E+00 0.888E-18
        57.483120       95.859722       70.969911    10     2     0     0     8   3.357 0.000E+00 0.000E+00 0.144E-17
        47.815967       75.836501      316.915706     9     0     0     0     6   3.240 0.264E-39 0.528E-39 0.104E-39
        29.094753      135.561647      133.338506     7     5     0     0     1   2.981 0.000E+00 0.000E+00 0.196E-15
        50.462968      182.691284      871.456278    34     0     0     0     1   5.050 0.264-114 0.528-114 0.172E-50
        36.360304       69.880422      158.509075    10     3     0     0     3   3.357 0.000E+00 0.000E+00 0.195E-17
       145.580067       45.528470     1799.235006     1     0     0     0     1   1.560 0.264E-15 0.528E-15 0.000E+00
       188.134533       74.787424      175.262033    17     1     0     0     8   4.007 0.000E+00 0.000E+00 0.884E-18
       196.855819      130.746666      151.344618    13     2     0     0     7   3.664 0.000E+00 0.000E+00 0.143E-17
       142.025835       25.090515      831.189079    14     0     0     0     6   3.760 0.264E-54 0.528E-54 0.638E-44
        29.144327       51.612086      654.601244    14     0     0     0     4   3.760 0.264E-54 0.528E-54 0.638E-44
       167.599592       13.913029      255.831142     7     0     0     0     8   2.980 0.264E-33 0.528E-33 0.907E-29
       136.253165       80.415379     2053.315930     1     0     0     0     4   1.560 0.264E-15 0.528E-15 0.000E+00
       197.204266       37.593889      237.783320     8     0     0     0     4   3.120 0.264E-36 0.528E-36 0.650E-32
        19.332793      160.432904     1212.358409     1     0     0     0     2   1.560 0.264E-15 0.528E-15 0.000E+00
       147.011756      187.597028      659.470206    20     0     0     0     5   4.230 0.264E-72 0.528E-72 0.795E-47
       156.833165       82.166430      500.425169    12     0     0     0     3   3.570 0.264E-48 0.528E-48 0.155E-42
       105.636755       96.246122       77.162972    12     3     0     0     3   3.568 0.000E+00 0.000E+00 0.192E-17
        50.483664       55.314263      342.001508    11     0     0     0     2   3.470 0.264E-45 0.528E-45 0.103E-41
        96.718835      183.605263     1382.287200     1     0     0     0     7   1.560 0.264E-15 0.528E-15 0.000E+00
       124.121270       61.993981      212.204042    14     0     0     0     2   3.760 0.264E-54 0.528E-54 0.638E-44
        59.843688      135.981897       32.455549     6     2     0     0     7   2.832 0.000E+00 0.000E+00 0.148E-17
       180.928504       22.893776      498.095555    14     0     0     0     4   3.760 0.264E-54 0.528E-54 0.638E-44
        65.967448       49.346885      650.917390    21     0     0     0     6   4.300 0.264E-75 0.528E-75 0.339E-47
        74.953408       16.705855      123.657347     8     3     0     0     2   3.117 0.000E+00 0.000E+00 0.200E-17
       168.492389       44.429160     1457.986140     1     0     0     0     5   1.560 0.264E-15 0.528E-15 0.000E+00
       138.780044      151.375606     2112.067177     1     0     0     0     7   1.560 0.264E-15 0.528E-15 0.000E+00
        91.102516       27.250869      230.658806     9     1     0     0     2   3.241 0.000E+00 0.000E+00 0.888E-18
       164.969134       57.629101       91.534164    11     3     0     0     8   3.466 0.000E+00 0.000E+00 0.194E-17
        10.605582       84.411499      697.701822    15     0     0     0     3   3.840 0.264E-57 0.528E-57 0.162E-44
       184.077770      140.936398      585.808387    15     0     0     0     3   3.840 0.264E-57 0.528E-57 0.162E-44
       180.615471       48.912377     1700.896609     1     0     0     0     3   1.560 0.264E-15 0.528E-15 0.000E+00
       169.600259      190.786053       58.845924     9     2     0     0     7   3.241 0.000E+00 0.000E+00 0.144E-17
        79.525387      166.645840       31.563814     6     0     0     0     5   2.830 0.264E-30 0.528E-30 0.317E-32
       176.975352       48.367039     1100.551791     1     0     0     0     2   1.560 0.264E-15 0.528E-15 0.000E+00
        80.195313       28.451130      592.027274    19     0     0     0     8   4.160 0.264E-69 0.528E-69 0.197E-46
        80.422664      138.339351      756.990888    16     0     0     0     6   3.930 0.264E-60 0.528E-60 0.469E-45
        39.553546       58.691464      282.306919     9     1     0     0     4   3.241 0.000E+00 0.000E+00 0.888E-18
       156.951282      111.389702      216.727265    19     1     0     0     4   4.158 0.000E+00 0.000E+00 0.884E-18
        43.644571      116.036595      124.681332    13     2     0     0     7   3.664 0.000E+00 0.000E+00 0.143E-17
       189.625262       48.658551       51.156701    14     7     0     0     2   3.756 0.000E+00 0.000E+00 0.221E-15
       172.909563      124.022744      340.917032    13     0     0     0     1   3.660 0.264E-51 0.528E-51 0.288E-43
        99.904478       14.845673      103.563467    10     6     0     0     5   3.357 0.000E+00 0.000E+00 0.211E-15
        82.658531      117.489808      437.260206    13     0     0     0     7   3.660 0.264E-51 0.528E-51 0.288E-43
        27.935057      130.500149     1526.995438     1     0     0     0     5   1.560 0.264E-15 0.528E-15 0.000E+00
        32.883714       95.003217     2119.574458     1     0     0     0     2   1.560 0.264E-15 0.528E-15 0.000E+00
        78.948477      186.130533      270.538431     9     0     0     0     8   3.240 0.264E-39 0.528E-39 0.104E-39
         9.321021      136.934427     1278.629864     1     0     0     0     7   1.560 0.264E-15 0.528E-15 0.000E+00
        43.739021       46.694139     1775.218476     1     0     0     0     6   1.560 0.264E-15 0.528E-15 0.000E+00
        52.189601       96.775709      434.766350    15     0     0     0     1   3.840 0.264E-57 0.528E-57 0.162E-44
       106.202312       45.892962     1186.983716     1     0     0     0     4   1.560 0.264E-15 0.528E-15 0.000E+00
       106.199210      145.446176      375.731000    11     0     0     0     6   3.470 0.264E-45 0.528E-45 0.103E-41
        10.229538      109.794347      161.628399    12     4     0     0     3   3.568 0.000E+00 0.000E+00 0.244E-17
        33.949085      189.655045      289.120468     6     0     0     0     2   2.830 0.264E-30 0.528E-30 0.317E-32
        58.487605      198.702774      218.865639    11     1     0     0     4   3.466 0.000E+00 0.000E+00 0.888E-18
       107.280029       69.512174      796.301420    21     0     0     0     3   4.300 0.264E-75 0.528E-75 0.339E-47
       187.099156       25.839670      594.451228    18     0     0     0     5   4.080 0.264E-66 0.528E-66 0.521E-46
       156.156103      158.149974      228.244611    11     0     0     0     1   3.470 0.264E-45 0.528E-45 0.103E-41
       140.277058      119.318535      725.001754    24     0     0     0     7   4.500 0.264E-84 0.528E-84 0.362E-48
       183.058259      157.405006      921.293093    31     0     0     0     5   4.900 0.264-105 0.528-105 0.665E-50
       167.082795      130.484526      510.113699    10     0     0     0     1   3.360 0.264E-42 0.528E-42 0.876E-41
       172.303838      117.543909      242.596405     8     0     0     0     8   3.120 0.264E-36 0.528E-36 0.650E-32
       167.800373      167.717694       27.241053    11     0     0     0     4   3.470 0.264E-45 0.528E-45 0.103E-41
       129.655182       26.490380      103.759805    10     3     0     0     7   3.357 0.000E+00 0.000E+00 0.195E-17
        13.317034       53.456427     1816.532029     1     0     0     0     2   1.560 0.264E-15 0.528E-15 0.000E+00
       162.106260       26.007547      264.802995    12     0     0     0     7   3.570 0.264E-48 0.528E-48 0.155E-42
       137.206159      159.188233      820.382391    22     0     0     0     8   4.370 0.264E-78 0.528E-78 0.154E-47
        14.297527      191.558534      818.868754    16     0     0     0     4   3.930 0.264E-60 0.528E-60 0.469E-45
       186.506977       27.125986      560.284272    23     0     0     0     4   4.430 0.264E-81 0.528E-81 0.728E-48
       197.473397      165.572987      220.150275    13     1     0     0     1   3.664 0.000E+00 0.000E+00 0.182E-20
       155.472320      182.582328      629.701769    20     0     0     0     7   4.230 0.264E-72 0.528E-72 0.795E-47
       133.901392      104.550800      300.260916     9     0     0     0     7   3.240 0.264E-39 0.528E-39 0.104E-39
        75.626064       40.147058     1749.792254     1     0     0     0     6   1.560 0.264E-15 0.528E-15 0.000E+00
       145.937555        1.583386      388.653396     6     0     0     0     6   2.830 0.264E-30 0.528E-30 0.317E-32
        58.105996       98.380489      274.114953    20     0     0     0     2   4.230 0.264E-72 0.528E-72 0.795E-47
        39.081644       34.912709     1198.816931     1     0     0     0     7   1.560 0.264E-15 0.528E-15 0.000E+00
       104.256922      191.293224      419.995838    18     0     0     0     2   4.080 0.264E-66 0.528E-66 0.521E-46
        24.010178       12.065779       94.375933    16     7     0     0     6   3.927 0.000E+00 0.000E+00 0.209E-15
        66.476216      145.932220     1155.364079     1     0     0     0     4   1.560 0.264E-15 0.528E-15 0.000E+00
       174.540021      182.971298      217.515010    10     0     0     0     2   3.360 0.264E-42 0.528E-42 0.876E-41
       127.976974      118.697515     1622.284697     1     0     0     0     8   1.560 0.264E-15 0.528E-15 0.000E+00
        28.682362      100.261744       39.360714    18     1     0     0     8   4.084 0.000E+00 0.000E+00 0.884E-18
        63.514784        9.564383      426.956287     9     0     0     0     3   3.240 0.264E-39 0.528E-39 0.104E-39
       177.870505       23.881618       26.486996    14     2     0     0     1   3.756 0.000E+00 0.000E+00 0.142E-17
        59.942700       23.938973      303.833771    18     0     0     0     2   4.080 0.264E-66 0.528E-66 0.521E-46
       119.343147       98.027318       54.225113     9     0     0     0     4   3.240 0.264E-39 0.528E-39 0.104E-39
        71.443769       11.340619      150.218700     7     4     0     0     8   2.981 0.000E+00 0.000E+00 0.278E-17
       156.333841      169.531465      887.246612     1     0     0     0     1   1.560 0.264E-15 0.528E-15 0.000E+00
        93.070350       90.751212      911.882230    45     0     0     0     5   5.540 0.264-147 0.528-147 0.368E-52
       121.818578       42.282754      474.555443    11     0     0     0     8   3.470 0.264E-45 0.528E-45 0.103E-41
        72.660095      132.359960      253.137131     7     0     0     0     6   2.980 0.264E-33 0.528E-33 0.907E-29
        91.555690      168.567916       66.232380    16     3     0     0     4   3.927 0.000E+00 0.000E+00 0.978E-16
       134.742549      198.787342      189.410627    13     0     0     0     6   3.660 0.264E-51 0.528E-51 0.288E-43
       131.003527      135.578536      417.679856    15     0     0     0     4   3.840 0.264E-57 0.528E-57 0.162E-44
       113.483827        2.100829     1472.217869     1     0     0     0     1   1.560 0.264E-15 0.528E-15 0.000E+00
        33.819008      185.434281      627.026582    16     0     0     0     8   3.930 0.264E-60 0.528E-60 0.469E-45
       198.706249       28.854689      618.456514    26     0     0     0     2   4.620 0.264E-90 0.528E-90 0.996E-49
       196.991117      139.511153      189.150492    12     2     0     0     8   3.568 0.000E+00 0.000E+00 0.143E-17
        76.230508      149.699902      269.608101    25     0     0     0     3   4.560 0.264E-87 0.528E-87 0.186E-48
       118.756428       77.532862      163.896739    17     4     0     0     7   4.007 0.000E+00 0.000E+00 0.234E-17
        94.867854       38.770102       46.299938    14     4     0     0     4   3.756 0.000E+00 0.000E+00 0.239E-17
        27.083587       16.609617      372.239203     9     0     0     0     2   3.240 0.264E-39 0.528E-39 0.104E-39
       174.627327      179.491471      990.771046     1     0     0     0     7   1.560 0.264E-15 0.528E-15 0.000E+00
       177.495932       85.126180     1842.422383     1     0     0     0     3   1.560 0.264E-15 0.528E-15 0.000E+00
       174.794023      145.135793      574.364041     7     0     0     0     5   2.980 0.264E-33 0.528E-33 0.907E-29
        71.939531      165.739158     1270.086937     1     0     0     0     8   1.560 0.264E-15 0.528E-15 0.000E+00
        93.024411      139.894656      625.214478    18     0     0     0     3   4.080 0.264E-66 0.528E-66 0.521E-46
        84.249420       51.644100      299.627423     8     0     0     0     1   3.120 0.264E-36 0.528E-36 0.650E-32
        83.675030       86.362751      489.752464    17     0     0     0     5   4.010 0.264E-63 0.528E-63 0.150E-45
       166.500899       84.496367      769.340898    20     0     0     0     3   4.230 0.264E-72 0.528E-72 0.795E-47
       116.093904       28.390559       28.726266     9     3     0     0     4   3.241 0.000E+00 0.000E+00 0.197E-17
       153.043884      168.646667     1544.242155     1     0     0     0     6   1.560 0.264E-15 0.528E-15 0.000E+00
        79.937502       73.020575      210.341197    21     1     0     0     2   4.299 0.000E+00 0.000E+00 0.884E-18
       157.066830       30.971370      286.115563    11     0     0     0     2   3.470 0.264E-45 0.528E-45 0.103E-41
        16.698661      154.469899      359.965798    10     0     0     0     7   3.360 0.264E-42 0.528E-42 0.876E-41
       154.114390      184.525554       75.340852    13     5     0     0     2   3.664 0.000E+00 0.000E+00 0.296E-17
        74.651841       10.524273      640.671566    20     0     0     0     3   4.230 0.264E-72 0.528E-72 0.795E-47
       163.759382      194.260116      700.347634    26     0     0     0     8   4.620 0.264E-90 0.528E-90 0.996E-49
        16.787617       66.296862       72.458717    10     2     0     0     5   3.357 0.000E+00 0.000E+00 0.144E-17
       113.170984      198.539347       75.422456    19     8     0     0     4   4.158 0.000E+00 0.000E+00 0.447E-17
       194.953378       31.553957      120.838931    11     4     0     0     7   3.466 0.000E+00 0.000E+00 0.247E-17
        81.948468       71.784479      726.114061    13     0     0     0     2   3.660 0.264E-51 0.528E-51 0.288E-43
       189.274453      144.939571      795.019819    19     0     0     0     4   4.160 0.264E-69 0.528E-69 0.197E-46
        77.048260      155.468386      578.055124    14     0     0     0     8   3.760 0.264E-54 0.528E-54 0.638E-44
        62.787802      169.262456     1350.943404     1     0     0     0     6   1.560 0.264E-15 0.528E-15 0.000E+00
       124.106070      177.467263      339.654389     7     0     0     0     2   2.980 0.264E-33 0.528E-33 0.907E-29
       178.642297      131.002360      373.665615    11     0     0     0     7   3.470 0.264E-45 0.528E-45 0.103E-41
         9.968392      150.849465      389.379456    15     0     0     0     8   3.840 0.264E-57 0.528E-57 0.162E-44
        11.660612       59.848489     1718.597695     1     0     0     0     6   1.560 0.264E-15 0.528E-15 0.000E+00
       167.556984      125.181580     1113.608925     1     0     0     0     5   1.560 0.264E-15 0.528E-15 0.000E+00
        81.740453       40.801116      619.303770    11     0     0     0     7   3.470 0.264E-45 0.528E-45 0.103E-41
       118.313144      104.423288      852.467424    32     0     0     0     1   4.950 0.264-108 0.528-108 0.415E-50
       122.726659       38.649775      783.797179    24     0     0     0     8   4.500 0.264E-84 0.528E-84 0.362E-48
       163.899657       47.470992      252.619155     8     0     0     0     4   3.120 0.264E-36 0.528E-36 0.650E-32
       134.770674       31.589511      209.956311    14     2     0     0     6   3.756 0.000E+00 0.000E+00 0.142E-17
       194.970010      180.427665      386.196369    15     0     0     0     5   3.840 0.264E-57 0.528E-57 0.162E-44
        57.254567       11.844429     1286.957985     1     0     0     0     4   1.560 0.264E-15 0.528E-15 0.000E+00
        51.378204       32.884899      927.596853     1     0     0     0     4   1.560 0.264E-15 0.528E-15 0.000E+00
       116.469202       70.550058      668.714295    10     0     0     0     8   3.360 0.264E-42 0.528E-42 0.876E-41
        87.302005      152.429467       92.463803    11     0     0     0     8   3.470 0.264E-45 0.528E-45 0.103E-41
       153.394634      110.882309      235.431680     9     1     0     0     8   3.241 0.000E+00 0.000E+00 0.888E-18
        76.931506      118.525874      682.106061    20     0     0     0     6   4.230 0.264E-72 0.528E-72 0.795E-47
       129.652366      113.759830     2075.583909     1     0     0     0     4   1.560 0.264E-15 0.528E-15 0.000E+00
        72.935096      195.157005      282.490223     6     0     0     0     8   2.830 0.264E-30 0.528E-30 0.317E-32
        86.314513      171.197338     1228.949864     1     0     0     0     2   1.560 0.264E-15 0.528E-15 0.000E+00
       194.869118       39.485084      213.927308     9     1     0     0     6   3.241 0.000E+00 0.000E+00 0.888E-18
        37.395648       99.975636      587.599734    12     0     0     0     3   3.570 0.264E-48 0.528E-48 0.155E-42
       199.344237       38.528400     1438.020603     1     0     0     0     3   1.560 0.264E-15 0.528E-15 0.000E+00
        91.242323      103.185768      131.290292    10     5     0     0     7   3.357 0.000E+00 0.000E+00 0.165E-15
       180.131109       90.913352     1344.035094     1     0     0     0     3   1.560 0.264E-15 0.528E-15 0.000E+00
       197.314632       79.041790      128.483059     7     6     0     0     5   2.981 0.000E+00 0.000E+00 0.276E-15
       118.167413      169.709737      691.073765    24     0     0     0     2   4.500 0.264E-84 0.528E-84 0.362E-48
        64.556375       46.922439      388.368970    11     0     0     0     2   3.470 0.264E-45 0.528E-45 0.103E-41
       199.498014      176.036191      779.627938    12     0     0     0     6   3.570 0.264E-48 0.528E-48 0.155E-42
       195.731233       36.403965      129.665418     8     0     0     0     5   3.120 0.264E-36 0.528E-36 0.650E-32
         3.383076        8.990276       94.711516    24     5     0     0     5   4.495 0.000E+00 0.000E+00 0.272E-17
       104.231474      128.312817       47.057942    11     3     0     0     5   3.466 0.000E+00 0.000E+00 0.194E-17
       153.742935       91.666508     1863.449411     1     0     0     0     5   1.560 0.264E-15 0.528E-15 0.000E+00